# Force       
# CofR        : (0.000000e+00 0.000000e+00 0.000000e+00)
#
# Time        	total_x total_y total_z	pressure_x pressure_y pressure_z	viscous_x viscous_y viscous_z
1              2.121960e-01 2.874313e-02 -4.882900e-05 1.712578e-01 2.868187e-02 -4.828517e-05 4.093822e-02 6.126027e-05 -5.438240e-07
2              2.427144e-01 3.495556e-02 -6.375267e-05 2.056602e-01 3.493642e-02 -5.908443e-05 3.705419e-02 1.913965e-05 -4.668234e-06
3              2.203609e-01 3.184116e-02 -3.847393e-04 1.858998e-01 3.184719e-02 -3.766389e-04 3.446114e-02 -6.036333e-06 -8.100363e-06
4              1.677436e-01 2.287086e-02 -7.387985e-04 1.352450e-01 2.289367e-02 -7.289100e-04 3.249860e-02 -2.280726e-05 -9.888545e-06
5              1.082847e-01 1.247144e-02 -9.434911e-04 7.725021e-02 1.250686e-02 -9.344597e-04 3.103450e-02 -3.541482e-05 -9.031396e-06
6              5.614615e-02 3.589852e-03 -9.031361e-04 2.623551e-02 3.635256e-03 -8.972289e-04 2.991064e-02 -4.540377e-05 -5.907160e-06
7              1.950254e-02 -2.168184e-03 -6.246953e-04 -9.526888e-03 -2.115907e-03 -6.218862e-04 2.902943e-02 -5.227667e-05 -2.809160e-06
8              5.875531e-04 -4.592075e-03 -2.126688e-04 -2.773481e-02 -4.536425e-03 -2.130966e-04 2.832236e-02 -5.564940e-05 4.277814e-07
9              -2.761994e-03 -4.466801e-03 9.996704e-05 -3.049907e-02 -4.412484e-03 9.774560e-05 2.773707e-02 -5.431686e-05 2.221442e-06
10             2.665475e-03 -2.822248e-03 4.888037e-04 -2.456435e-02 -2.773126e-03 4.846991e-04 2.722983e-02 -4.912156e-05 4.104631e-06
11             1.335137e-02 -4.674724e-04 7.825755e-04 -1.342323e-02 -4.266664e-04 7.780351e-04 2.677460e-02 -4.080601e-05 4.540479e-06
12             2.666438e-02 1.919524e-03 7.221473e-04 3.006456e-04 1.948518e-03 7.184284e-04 2.636373e-02 -2.899392e-05 3.718893e-06
13             3.741001e-02 3.489489e-03 4.764573e-04 1.142695e-02 3.506426e-03 4.742744e-04 2.598306e-02 -1.693766e-05 2.182922e-06
14             4.336581e-02 4.095166e-03 2.681293e-04 1.773974e-02 4.103958e-03 2.673657e-04 2.562608e-02 -8.791325e-06 7.636733e-07
15             4.574636e-02 3.970955e-03 -1.447480e-06 2.045432e-02 3.975248e-03 -9.832966e-07 2.529203e-02 -4.292658e-06 -4.641838e-07
16             4.542216e-02 3.391178e-03 -2.704944e-04 2.043542e-02 3.394470e-03 -2.692774e-04 2.498674e-02 -3.292300e-06 -1.217084e-06
17             4.331519e-02 2.579992e-03 -5.001217e-04 1.860410e-02 2.585202e-03 -4.988801e-04 2.471109e-02 -5.209942e-06 -1.241563e-06
18             4.033991e-02 1.796209e-03 -6.357477e-04 1.587748e-02 1.805082e-03 -6.344141e-04 2.446243e-02 -8.873096e-06 -1.333644e-06
19             3.733089e-02 1.224992e-03 -6.559384e-04 1.309426e-02 1.238101e-03 -6.551003e-04 2.423663e-02 -1.310885e-05 -8.381232e-07
20             3.485478e-02 9.403600e-04 -5.757525e-04 1.082485e-02 9.569874e-04 -5.752682e-04 2.402993e-02 -1.662738e-05 -4.842688e-07
21             3.316559e-02 9.154497e-04 -4.331770e-04 9.327472e-03 9.341753e-04 -4.332080e-04 2.383812e-02 -1.872562e-05 3.096969e-08
22             3.221676e-02 1.061793e-03 -2.681669e-04 8.559719e-03 1.080868e-03 -2.685856e-04 2.365705e-02 -1.907417e-05 4.186064e-07
23             3.180536e-02 1.294088e-03 -1.050590e-04 8.321475e-03 1.311727e-03 -1.056901e-04 2.348388e-02 -1.763906e-05 6.310913e-07
24             3.173695e-02 1.528763e-03 2.719900e-05 8.420716e-03 1.543407e-03 2.660071e-05 2.331623e-02 -1.464365e-05 5.982910e-07
25             3.181137e-02 1.696727e-03 1.059066e-04 8.658077e-03 1.707205e-03 1.054170e-04 2.315329e-02 -1.047751e-05 4.896292e-07
26             3.186359e-02 1.766529e-03 1.256523e-04 8.868575e-03 1.772108e-03 1.253189e-04 2.299502e-02 -5.578860e-06 3.333808e-07
27             3.179663e-02 1.745167e-03 9.707400e-05 8.955496e-03 1.745498e-03 9.691799e-05 2.284113e-02 -3.317551e-07 1.560079e-07
28             3.158881e-02 1.667353e-03 4.041112e-05 8.897026e-03 1.662391e-03 4.041870e-05 2.269179e-02 4.962320e-06 -7.583209e-09
29             3.127387e-02 1.566417e-03 -2.890422e-05 8.726473e-03 1.556272e-03 -2.874638e-05 2.254739e-02 1.014455e-05 -1.578361e-07
30             3.088849e-02 1.456294e-03 -1.046633e-04 8.480509e-03 1.441183e-03 -1.044008e-04 2.240798e-02 1.511129e-05 -2.625677e-07
31             3.047371e-02 1.358199e-03 -1.742996e-04 8.200333e-03 1.338358e-03 -1.739730e-04 2.227338e-02 1.984089e-05 -3.266167e-07
32             3.007335e-02 1.290462e-03 -2.246163e-04 7.929771e-03 1.266085e-03 -2.242538e-04 2.214358e-02 2.437737e-05 -3.624428e-07
33             2.971842e-02 1.258367e-03 -2.489236e-04 7.700191e-03 1.229601e-03 -2.485412e-04 2.201823e-02 2.876595e-05 -3.824006e-07
34             2.942186e-02 1.255377e-03 -2.478940e-04 7.525003e-03 1.222319e-03 -2.475035e-04 2.189686e-02 3.305753e-05 -3.905207e-07
35             2.918091e-02 1.268683e-03 -2.271415e-04 7.401702e-03 1.231392e-03 -2.267502e-04 2.177920e-02 3.729145e-05 -3.912889e-07
36             2.898364e-02 1.285064e-03 -1.938496e-04 7.318644e-03 1.243582e-03 -1.934550e-04 2.166500e-02 4.148206e-05 -3.945805e-07
37             2.881635e-02 1.294009e-03 -1.552418e-04 7.262381e-03 1.248397e-03 -1.548341e-04 2.155397e-02 4.561132e-05 -4.076260e-07
38             2.866709e-02 1.288848e-03 -1.182978e-04 7.221219e-03 1.239206e-03 -1.178749e-04 2.144587e-02 4.964207e-05 -4.229376e-07
39             2.852689e-02 1.267385e-03 -8.866329e-05 7.186396e-03 1.213859e-03 -8.822790e-05 2.134049e-02 5.352643e-05 -4.353936e-07
40             2.839013e-02 1.231565e-03 -6.953979e-05 7.152429e-03 1.174347e-03 -6.908951e-05 2.123770e-02 5.721792e-05 -4.502805e-07
41             2.825414e-02 1.185963e-03 -6.140843e-05 7.116750e-03 1.125280e-03 -6.094089e-05 2.113739e-02 6.068320e-05 -4.675380e-07
42             2.811840e-02 1.135722e-03 -6.264744e-05 7.078860e-03 1.071814e-03 -6.216653e-05 2.103954e-02 6.390882e-05 -4.809159e-07
43             2.798350e-02 1.085134e-03 -7.058993e-05 7.039425e-03 1.018240e-03 -7.009430e-05 2.094408e-02 6.689429e-05 -4.956260e-07
44             2.785044e-02 1.037373e-03 -8.227258e-05 6.999508e-03 9.677242e-04 -8.176372e-05 2.085093e-02 6.964907e-05 -5.088534e-07
45             2.772013e-02 9.943960e-04 -9.490040e-05 6.960058e-03 9.222035e-04 -9.437862e-05 2.076008e-02 7.219254e-05 -5.217801e-07
46             2.759309e-02 9.571861e-04 -1.060907e-04 6.921616e-03 8.826347e-04 -1.055600e-04 2.067148e-02 7.455138e-05 -5.307675e-07
47             2.746938e-02 9.256704e-04 -1.142041e-04 6.884300e-03 8.489186e-04 -1.136640e-04 2.058508e-02 7.675185e-05 -5.401022e-07
48             2.734884e-02 8.990118e-04 -1.184423e-04 6.847960e-03 8.201943e-04 -1.178905e-04 2.050088e-02 7.881747e-05 -5.517704e-07
49             2.723121e-02 8.760105e-04 -1.187576e-04 6.812409e-03 7.952438e-04 -1.181934e-04 2.041880e-02 8.076665e-05 -5.641875e-07
50             2.711644e-02 8.554715e-04 -1.156766e-04 6.777616e-03 7.728560e-04 -1.151012e-04 2.033883e-02 8.261554e-05 -5.754061e-07
51             2.700474e-02 8.364488e-04 -1.101463e-04 6.743812e-03 7.520759e-04 -1.095610e-04 2.026093e-02 8.437290e-05 -5.852916e-07
52             2.689654e-02 8.183359e-04 -1.033752e-04 6.711477e-03 7.322918e-04 -1.027799e-04 2.018507e-02 8.604409e-05 -5.952592e-07
53             2.679232e-02 8.008511e-04 -9.658003e-05 6.681120e-03 7.132217e-04 -9.597420e-05 2.011120e-02 8.762939e-05 -6.058339e-07
54             2.669236e-02 7.839609e-04 -9.069112e-05 6.653056e-03 6.948325e-04 -9.007604e-05 2.003930e-02 8.912840e-05 -6.150783e-07
55             2.659667e-02 7.677692e-04 -8.619802e-05 6.627337e-03 6.772303e-04 -8.557619e-05 1.996934e-02 9.053883e-05 -6.218296e-07
56             2.650512e-02 7.524391e-04 -8.318649e-05 6.603847e-03 6.605801e-04 -8.256041e-05 1.990127e-02 9.185903e-05 -6.260726e-07
57             2.641749e-02 7.381634e-04 -8.146784e-05 6.582412e-03 6.450738e-04 -8.083926e-05 1.983508e-02 9.308955e-05 -6.285820e-07
58             2.633360e-02 7.251280e-04 -8.070151e-05 6.562867e-03 6.308924e-04 -8.007132e-05 1.977073e-02 9.423559e-05 -6.301831e-07
59             2.625320e-02 7.135069e-04 -8.048486e-05 6.545009e-03 6.182016e-04 -7.985410e-05 1.970819e-02 9.530530e-05 -6.307615e-07
60             2.617607e-02 7.034169e-04 -8.042587e-05 6.528607e-03 6.071110e-04 -7.979592e-05 1.964746e-02 9.630588e-05 -6.299443e-07
61             2.610195e-02 6.948802e-04 -8.020103e-05 6.513434e-03 5.976372e-04 -7.957344e-05 1.958851e-02 9.724300e-05 -6.275865e-07
62             2.603062e-02 6.878162e-04 -7.958809e-05 6.499296e-03 5.896946e-04 -7.896340e-05 1.953132e-02 9.812159e-05 -6.246886e-07
63             2.596192e-02 6.820573e-04 -7.847875e-05 6.486042e-03 5.831125e-04 -7.785290e-05 1.947588e-02 9.894480e-05 -6.258493e-07
64             2.589570e-02 6.773957e-04 -7.686303e-05 6.473529e-03 5.776708e-04 -7.623291e-05 1.942217e-02 9.972494e-05 -6.301238e-07
65             2.583179e-02 6.735795e-04 -7.482168e-05 6.461623e-03 5.731156e-04 -7.418833e-05 1.937017e-02 1.004639e-04 -6.333449e-07
66             2.577005e-02 6.703469e-04 -7.248933e-05 6.450204e-03 5.691848e-04 -7.185213e-05 1.931985e-02 1.011621e-04 -6.371925e-07
67             2.571038e-02 6.674607e-04 -7.000294e-05 6.439190e-03 5.656406e-04 -6.935997e-05 1.927119e-02 1.018202e-04 -6.429716e-07
68             2.565272e-02 6.647326e-04 -6.746966e-05 6.428545e-03 5.622933e-04 -6.682308e-05 1.922417e-02 1.024392e-04 -6.465857e-07
69             2.559704e-02 6.620316e-04 -6.496692e-05 6.418261e-03 5.590112e-04 -6.431656e-05 1.917878e-02 1.030204e-04 -6.503622e-07
70             2.554334e-02 6.592841e-04 -6.253864e-05 6.408353e-03 5.557191e-04 -6.188380e-05 1.913499e-02 1.035650e-04 -6.548337e-07
71             2.549159e-02 6.564701e-04 -6.020094e-05 6.398822e-03 5.523961e-04 -5.954096e-05 1.909277e-02 1.040740e-04 -6.599781e-07
72             2.544176e-02 6.536081e-04 -5.795306e-05 6.389671e-03 5.490604e-04 -5.728823e-05 1.905209e-02 1.045477e-04 -6.648340e-07
73             2.539385e-02 6.507359e-04 -5.578460e-05 6.380898e-03 5.457510e-04 -5.511579e-05 1.901295e-02 1.049850e-04 -6.688032e-07
74             2.534780e-02 6.478998e-04 -5.368065e-05 6.372493e-03 5.425101e-04 -5.300710e-05 1.897530e-02 1.053897e-04 -6.735487e-07
75             2.530357e-02 6.451353e-04 -5.162286e-05 6.364442e-03 5.393686e-04 -5.094412e-05 1.893913e-02 1.057667e-04 -6.787429e-07
76             2.526112e-02 6.424602e-04 -4.959498e-05 6.356734e-03 5.363426e-04 -4.891285e-05 1.890439e-02 1.061177e-04 -6.821288e-07
77             2.522041e-02 6.398790e-04 -4.758841e-05 6.349356e-03 5.334359e-04 -4.690348e-05 1.887105e-02 1.064431e-04 -6.849329e-07
78             2.518138e-02 6.373848e-04 -4.559947e-05 6.342286e-03 5.306392e-04 -4.491210e-05 1.883909e-02 1.067457e-04 -6.873674e-07
79             2.514397e-02 6.349608e-04 -4.362880e-05 6.335503e-03 5.279335e-04 -4.293970e-05 1.880847e-02 1.070272e-04 -6.891058e-07
80             2.510813e-02 6.325767e-04 -4.168129e-05 6.328992e-03 5.252879e-04 -4.098920e-05 1.877914e-02 1.072888e-04 -6.920987e-07
81             2.507382e-02 6.302051e-04 -3.975594e-05 6.322743e-03 5.226733e-04 -3.906347e-05 1.875108e-02 1.075318e-04 -6.924763e-07
82             2.504102e-02 6.278253e-04 -3.785907e-05 6.316762e-03 5.200663e-04 -3.716859e-05 1.872425e-02 1.077589e-04 -6.904781e-07
83             2.500969e-02 6.254204e-04 -3.599682e-05 6.311058e-03 5.174485e-04 -3.531016e-05 1.869863e-02 1.079719e-04 -6.866551e-07
84             2.497983e-02 6.229803e-04 -3.417522e-05 6.305645e-03 5.148109e-04 -3.349379e-05 1.867418e-02 1.081694e-04 -6.814286e-07
85             2.495141e-02 6.205054e-04 -3.239732e-05 6.300544e-03 5.121536e-04 -3.172253e-05 1.865087e-02 1.083519e-04 -6.747855e-07
86             2.492442e-02 6.180067e-04 -3.066505e-05 6.295766e-03 5.094861e-04 -2.999852e-05 1.862865e-02 1.085206e-04 -6.665329e-07
87             2.489882e-02 6.154966e-04 -2.898220e-05 6.291319e-03 5.068208e-04 -2.832466e-05 1.860750e-02 1.086758e-04 -6.575469e-07
88             2.487457e-02 6.129875e-04 -2.735316e-05 6.287202e-03 5.041674e-04 -2.670427e-05 1.858737e-02 1.088201e-04 -6.488944e-07
89             2.485163e-02 6.104940e-04 -2.578174e-05 6.283405e-03 5.015373e-04 -2.514027e-05 1.856822e-02 1.089567e-04 -6.414642e-07
90             2.482994e-02 6.080311e-04 -2.426952e-05 6.279916e-03 4.989435e-04 -2.363510e-05 1.855003e-02 1.090877e-04 -6.344224e-07
91             2.480947e-02 6.056143e-04 -2.281657e-05 6.276721e-03 4.963981e-04 -2.219263e-05 1.853275e-02 1.092163e-04 -6.239401e-07
92             2.479015e-02 6.032558e-04 -2.143005e-05 6.273793e-03 4.939174e-04 -2.081620e-05 1.851636e-02 1.093384e-04 -6.138473e-07
93             2.477190e-02 6.009692e-04 -2.011412e-05 6.271102e-03 4.915150e-04 -1.950969e-05 1.850079e-02 1.094542e-04 -6.044355e-07
94             2.475466e-02 5.987647e-04 -1.887040e-05 6.268624e-03 4.892002e-04 -1.827476e-05 1.848603e-02 1.095645e-04 -5.956436e-07
95             2.473837e-02 5.966478e-04 -1.770018e-05 6.266335e-03 4.869782e-04 -1.711326e-05 1.847204e-02 1.096695e-04 -5.869139e-07
96             2.472299e-02 5.946214e-04 -1.660335e-05 6.264218e-03 4.848514e-04 -1.602538e-05 1.845877e-02 1.097700e-04 -5.779715e-07
97             2.470846e-02 5.926877e-04 -1.557953e-05 6.262259e-03 4.828218e-04 -1.501080e-05 1.844621e-02 1.098659e-04 -5.687254e-07
98             2.469475e-02 5.908493e-04 -1.462659e-05 6.260448e-03 4.808921e-04 -1.406765e-05 1.843431e-02 1.099572e-04 -5.589468e-07
99             2.468182e-02 5.891100e-04 -1.374359e-05 6.258782e-03 4.790656e-04 -1.319483e-05 1.842304e-02 1.100444e-04 -5.487625e-07
100            2.466964e-02 5.874725e-04 -1.292898e-05 6.257257e-03 4.773451e-04 -1.239081e-05 1.841238e-02 1.101274e-04 -5.381716e-07
101            2.465817e-02 5.859376e-04 -1.218009e-05 6.255871e-03 4.757301e-04 -1.165276e-05 1.840230e-02 1.102075e-04 -5.273289e-07
102            2.464739e-02 5.845021e-04 -1.149384e-05 6.254621e-03 4.742177e-04 -1.097736e-05 1.839277e-02 1.102844e-04 -5.164869e-07
103            2.463728e-02 5.831591e-04 -1.086570e-05 6.253510e-03 4.728043e-04 -1.036060e-05 1.838377e-02 1.103548e-04 -5.050965e-07
104            2.462779e-02 5.819041e-04 -1.029172e-05 6.252530e-03 4.714854e-04 -9.798259e-06 1.837526e-02 1.104187e-04 -4.934653e-07
105            2.461889e-02 5.807317e-04 -9.767993e-06 6.251676e-03 4.702555e-04 -9.286217e-06 1.836722e-02 1.104762e-04 -4.817760e-07
106            2.461056e-02 5.796391e-04 -9.290870e-06 6.250935e-03 4.691110e-04 -8.820869e-06 1.835962e-02 1.105280e-04 -4.700011e-07
107            2.460274e-02 5.786272e-04 -8.859368e-06 6.250298e-03 4.680520e-04 -8.401277e-06 1.835245e-02 1.105752e-04 -4.580916e-07
108            2.459542e-02 5.776972e-04 -8.477011e-06 6.249754e-03 4.670807e-04 -8.029193e-06 1.834567e-02 1.106165e-04 -4.478176e-07
109            2.458856e-02 5.768519e-04 -8.148940e-06 6.249285e-03 4.661989e-04 -7.710087e-06 1.833927e-02 1.106530e-04 -4.388535e-07
110            2.458210e-02 5.760928e-04 -7.879744e-06 6.248873e-03 4.654067e-04 -7.448811e-06 1.833323e-02 1.106861e-04 -4.309331e-07
111            2.457603e-02 5.754194e-04 -7.673162e-06 6.248504e-03 4.647037e-04 -7.249097e-06 1.832752e-02 1.107157e-04 -4.240649e-07
112            2.457031e-02 5.748315e-04 -7.531672e-06 6.248169e-03 4.640887e-04 -7.113670e-06 1.832214e-02 1.107428e-04 -4.180017e-07
113            2.456492e-02 5.743287e-04 -7.455544e-06 6.247866e-03 4.635612e-04 -7.043379e-06 1.831705e-02 1.107675e-04 -4.121646e-07
114            2.455985e-02 5.739103e-04 -7.444338e-06 6.247593e-03 4.631208e-04 -7.037663e-06 1.831225e-02 1.107896e-04 -4.066752e-07
115            2.455507e-02 5.735754e-04 -7.496705e-06 6.247349e-03 4.627660e-04 -7.095283e-06 1.830772e-02 1.108094e-04 -4.014216e-07
116            2.455059e-02 5.733232e-04 -7.610645e-06 6.247135e-03 4.624956e-04 -7.214622e-06 1.830345e-02 1.108276e-04 -3.960232e-07
117            2.454637e-02 5.731528e-04 -7.784296e-06 6.246951e-03 4.623080e-04 -7.393901e-06 1.829942e-02 1.108448e-04 -3.903952e-07
118            2.454241e-02 5.730620e-04 -8.014396e-06 6.246798e-03 4.622012e-04 -7.629494e-06 1.829561e-02 1.108608e-04 -3.849014e-07
119            2.453870e-02 5.730479e-04 -8.297317e-06 6.246674e-03 4.621729e-04 -7.917439e-06 1.829202e-02 1.108750e-04 -3.798781e-07
120            2.453522e-02 5.731088e-04 -8.628932e-06 6.246580e-03 4.622207e-04 -8.253740e-06 1.828864e-02 1.108882e-04 -3.751919e-07
121            2.453196e-02 5.732426e-04 -9.004883e-06 6.246515e-03 4.623416e-04 -8.633887e-06 1.828545e-02 1.109010e-04 -3.709959e-07
122            2.452891e-02 5.734456e-04 -9.421562e-06 6.246475e-03 4.625317e-04 -9.054078e-06 1.828244e-02 1.109140e-04 -3.674834e-07
123            2.452605e-02 5.737133e-04 -9.876298e-06 6.246454e-03 4.627856e-04 -9.511671e-06 1.827960e-02 1.109277e-04 -3.646270e-07
124            2.452337e-02 5.740416e-04 -1.036530e-05 6.246450e-03 4.630993e-04 -1.000298e-05 1.827692e-02 1.109423e-04 -3.623229e-07
125            2.452086e-02 5.744273e-04 -1.088131e-05 6.246464e-03 4.634698e-04 -1.052067e-05 1.827440e-02 1.109575e-04 -3.606367e-07
126            2.451851e-02 5.748668e-04 -1.142085e-05 6.246497e-03 4.638947e-04 -1.106140e-05 1.827202e-02 1.109721e-04 -3.594550e-07
127            2.451633e-02 5.753572e-04 -1.197979e-05 6.246547e-03 4.643715e-04 -1.162115e-05 1.826978e-02 1.109857e-04 -3.586323e-07
128            2.451428e-02 5.758944e-04 -1.255528e-05 6.246607e-03 4.648957e-04 -1.219647e-05 1.826767e-02 1.109987e-04 -3.588061e-07
129            2.451235e-02 5.764747e-04 -1.314223e-05 6.246670e-03 4.654630e-04 -1.278237e-05 1.826568e-02 1.110118e-04 -3.598629e-07
130            2.451056e-02 5.770951e-04 -1.373925e-05 6.246746e-03 4.660710e-04 -1.338126e-05 1.826382e-02 1.110240e-04 -3.579954e-07
131            2.450890e-02 5.777533e-04 -1.434719e-05 6.246836e-03 4.667176e-04 -1.399297e-05 1.826206e-02 1.110357e-04 -3.542180e-07
132            2.450735e-02 5.784470e-04 -1.496609e-05 6.246940e-03 4.673997e-04 -1.461668e-05 1.826041e-02 1.110474e-04 -3.494055e-07
133            2.450590e-02 5.791733e-04 -1.559564e-05 6.247053e-03 4.681140e-04 -1.525153e-05 1.825885e-02 1.110593e-04 -3.441129e-07
134            2.450456e-02 5.799290e-04 -1.623602e-05 6.247175e-03 4.688581e-04 -1.589613e-05 1.825739e-02 1.110709e-04 -3.398866e-07
135            2.450332e-02 5.807124e-04 -1.688783e-05 6.247307e-03 4.696298e-04 -1.655154e-05 1.825601e-02 1.110826e-04 -3.362898e-07
136            2.450217e-02 5.815216e-04 -1.755247e-05 6.247449e-03 4.704268e-04 -1.721965e-05 1.825472e-02 1.110948e-04 -3.328214e-07
137            2.450110e-02 5.823544e-04 -1.823144e-05 6.247598e-03 4.712467e-04 -1.790230e-05 1.825350e-02 1.111077e-04 -3.291428e-07
138            2.450011e-02 5.832080e-04 -1.892624e-05 6.247754e-03 4.720868e-04 -1.860062e-05 1.825235e-02 1.111212e-04 -3.256219e-07
139            2.449919e-02 5.840800e-04 -1.963662e-05 6.247915e-03 4.729453e-04 -1.931412e-05 1.825128e-02 1.111348e-04 -3.225045e-07
140            2.449834e-02 5.849684e-04 -2.036231e-05 6.248076e-03 4.738198e-04 -2.004291e-05 1.825026e-02 1.111486e-04 -3.193965e-07
141            2.449755e-02 5.858715e-04 -2.110431e-05 6.248234e-03 4.747088e-04 -2.078847e-05 1.824931e-02 1.111626e-04 -3.158424e-07
142            2.449680e-02 5.867880e-04 -2.186604e-05 6.248384e-03 4.756103e-04 -2.155450e-05 1.824842e-02 1.111777e-04 -3.115327e-07
143            2.449610e-02 5.877166e-04 -2.265259e-05 6.248525e-03 4.765226e-04 -2.234640e-05 1.824758e-02 1.111940e-04 -3.061828e-07
144            2.449545e-02 5.886550e-04 -2.347173e-05 6.248658e-03 4.774432e-04 -2.317229e-05 1.824679e-02 1.112118e-04 -2.994373e-07
145            2.449483e-02 5.896023e-04 -2.432719e-05 6.248788e-03 4.783717e-04 -2.403506e-05 1.824604e-02 1.112306e-04 -2.921333e-07
146            2.449428e-02 5.905570e-04 -2.521522e-05 6.248928e-03 4.793101e-04 -2.492823e-05 1.824535e-02 1.112468e-04 -2.869949e-07
147            2.449381e-02 5.915174e-04 -2.612479e-05 6.249092e-03 4.802620e-04 -2.583719e-05 1.824471e-02 1.112555e-04 -2.875987e-07
148            2.449339e-02 5.924832e-04 -2.703965e-05 6.249274e-03 4.812251e-04 -2.674933e-05 1.824412e-02 1.112581e-04 -2.903236e-07
149            2.449303e-02 5.934530e-04 -2.794361e-05 6.249463e-03 4.821952e-04 -2.764929e-05 1.824356e-02 1.112578e-04 -2.943189e-07
150            2.449269e-02 5.944243e-04 -2.882132e-05 6.249654e-03 4.831679e-04 -2.852194e-05 1.824304e-02 1.112564e-04 -2.993799e-07
151            2.449239e-02 5.953938e-04 -2.965815e-05 6.249838e-03 4.841388e-04 -2.935267e-05 1.824255e-02 1.112550e-04 -3.054879e-07
152            2.449211e-02 5.963576e-04 -3.044081e-05 6.250014e-03 4.851035e-04 -3.012837e-05 1.824209e-02 1.112541e-04 -3.124377e-07
153            2.449184e-02 5.973123e-04 -3.115814e-05 6.250176e-03 4.860580e-04 -3.083818e-05 1.824166e-02 1.112543e-04 -3.199579e-07
154            2.449158e-02 5.982548e-04 -3.180163e-05 6.250325e-03 4.869994e-04 -3.147386e-05 1.824126e-02 1.112554e-04 -3.277758e-07
155            2.449134e-02 5.991831e-04 -3.236569e-05 6.250461e-03 4.879260e-04 -3.202993e-05 1.824088e-02 1.112570e-04 -3.357627e-07
156            2.449111e-02 6.000964e-04 -3.284757e-05 6.250586e-03 4.888372e-04 -3.250389e-05 1.824053e-02 1.112592e-04 -3.436822e-07
157            2.449090e-02 6.009950e-04 -3.324674e-05 6.250703e-03 4.897332e-04 -3.289541e-05 1.824020e-02 1.112618e-04 -3.513347e-07
158            2.449071e-02 6.018792e-04 -3.356395e-05 6.250818e-03 4.906143e-04 -3.320533e-05 1.823989e-02 1.112648e-04 -3.586141e-07
159            2.449054e-02 6.027492e-04 -3.380111e-05 6.250931e-03 4.914809e-04 -3.343555e-05 1.823961e-02 1.112682e-04 -3.655579e-07
160            2.449038e-02 6.036051e-04 -3.396064e-05 6.251045e-03 4.923331e-04 -3.358845e-05 1.823934e-02 1.112721e-04 -3.721916e-07
161            2.449025e-02 6.044473e-04 -3.404549e-05 6.251162e-03 4.931708e-04 -3.366695e-05 1.823909e-02 1.112765e-04 -3.785396e-07
162            2.449014e-02 6.052750e-04 -3.405901e-05 6.251282e-03 4.939938e-04 -3.367444e-05 1.823886e-02 1.112812e-04 -3.845644e-07
163            2.449005e-02 6.060874e-04 -3.400518e-05 6.251406e-03 4.948010e-04 -3.361497e-05 1.823864e-02 1.112864e-04 -3.902141e-07
164            2.448997e-02 6.068843e-04 -3.388860e-05 6.251530e-03 4.955919e-04 -3.349265e-05 1.823844e-02 1.112924e-04 -3.959465e-07
165            2.448990e-02 6.076644e-04 -3.371318e-05 6.251654e-03 4.963659e-04 -3.331159e-05 1.823825e-02 1.112985e-04 -4.015848e-07
166            2.448985e-02 6.084265e-04 -3.348270e-05 6.251776e-03 4.971220e-04 -3.307548e-05 1.823807e-02 1.113045e-04 -4.072201e-07
167            2.448981e-02 6.091698e-04 -3.320101e-05 6.251895e-03 4.978596e-04 -3.278803e-05 1.823791e-02 1.113101e-04 -4.129781e-07
168            2.448977e-02 6.098927e-04 -3.287171e-05 6.252010e-03 4.985772e-04 -3.245288e-05 1.823776e-02 1.113155e-04 -4.188313e-07
169            2.448974e-02 6.105940e-04 -3.249820e-05 6.252117e-03 4.992731e-04 -3.207358e-05 1.823762e-02 1.113209e-04 -4.246174e-07
170            2.448971e-02 6.112724e-04 -3.208337e-05 6.252217e-03 4.999461e-04 -3.165316e-05 1.823749e-02 1.113263e-04 -4.302096e-07
171            2.448968e-02 6.119269e-04 -3.162961e-05 6.252309e-03 5.005953e-04 -3.119409e-05 1.823737e-02 1.113316e-04 -4.355201e-07
172            2.448965e-02 6.125574e-04 -3.113882e-05 6.252391e-03 5.012203e-04 -3.069830e-05 1.823726e-02 1.113371e-04 -4.405209e-07
173            2.448962e-02 6.131639e-04 -3.061214e-05 6.252467e-03 5.018213e-04 -3.016684e-05 1.823715e-02 1.113426e-04 -4.452981e-07
174            2.448959e-02 6.137472e-04 -3.004939e-05 6.252537e-03 5.023990e-04 -2.959946e-05 1.823705e-02 1.113482e-04 -4.499323e-07
175            2.448957e-02 6.143077e-04 -2.944966e-05 6.252604e-03 5.029542e-04 -2.899526e-05 1.823696e-02 1.113535e-04 -4.543970e-07
176            2.448954e-02 6.148461e-04 -2.881181e-05 6.252670e-03 5.034874e-04 -2.835313e-05 1.823687e-02 1.113586e-04 -4.586850e-07
177            2.448953e-02 6.153629e-04 -2.813503e-05 6.252736e-03 5.039991e-04 -2.767235e-05 1.823679e-02 1.113638e-04 -4.626816e-07
178            2.448952e-02 6.158587e-04 -2.741932e-05 6.252801e-03 5.044896e-04 -2.695295e-05 1.823672e-02 1.113691e-04 -4.663774e-07
179            2.448952e-02 6.163338e-04 -2.666563e-05 6.252866e-03 5.049592e-04 -2.619578e-05 1.823665e-02 1.113745e-04 -4.698533e-07
180            2.448952e-02 6.167881e-04 -2.587475e-05 6.252931e-03 5.054081e-04 -2.540169e-05 1.823658e-02 1.113800e-04 -4.730640e-07
181            2.448952e-02 6.172216e-04 -2.504767e-05 6.252995e-03 5.058363e-04 -2.457178e-05 1.823652e-02 1.113853e-04 -4.758898e-07
182            2.448953e-02 6.176344e-04 -2.418570e-05 6.253059e-03 5.062438e-04 -2.370741e-05 1.823647e-02 1.113906e-04 -4.782853e-07
183            2.448953e-02 6.180269e-04 -2.329036e-05 6.253122e-03 5.066311e-04 -2.280997e-05 1.823641e-02 1.113958e-04 -4.803935e-07
184            2.448955e-02 6.183992e-04 -2.236420e-05 6.253184e-03 5.069982e-04 -2.188190e-05 1.823636e-02 1.114010e-04 -4.823016e-07
185            2.448956e-02 6.187513e-04 -2.141023e-05 6.253244e-03 5.073453e-04 -2.092623e-05 1.823632e-02 1.114061e-04 -4.839933e-07
186            2.448958e-02 6.190703e-04 -2.046118e-05 6.253306e-03 5.076593e-04 -1.997540e-05 1.823628e-02 1.114110e-04 -4.857827e-07
187            2.448961e-02 6.193615e-04 -1.950910e-05 6.253367e-03 5.079459e-04 -1.902146e-05 1.823624e-02 1.114156e-04 -4.876397e-07
188            2.448964e-02 6.196300e-04 -1.854988e-05 6.253430e-03 5.082100e-04 -1.806037e-05 1.823621e-02 1.114199e-04 -4.895090e-07
189            2.448967e-02 6.198792e-04 -1.758227e-05 6.253493e-03 5.084552e-04 -1.709083e-05 1.823618e-02 1.114239e-04 -4.914360e-07
190            2.448971e-02 6.201120e-04 -1.660684e-05 6.253555e-03 5.086842e-04 -1.611369e-05 1.823615e-02 1.114277e-04 -4.931528e-07
191            2.448974e-02 6.203301e-04 -1.562673e-05 6.253616e-03 5.088984e-04 -1.513233e-05 1.823612e-02 1.114316e-04 -4.943975e-07
192            2.448977e-02 6.205344e-04 -1.464621e-05 6.253672e-03 5.090986e-04 -1.415111e-05 1.823610e-02 1.114357e-04 -4.950966e-07
193            2.448980e-02 6.207253e-04 -1.367161e-05 6.253727e-03 5.092851e-04 -1.317646e-05 1.823607e-02 1.114402e-04 -4.951494e-07
194            2.448982e-02 6.209032e-04 -1.270947e-05 6.253779e-03 5.094582e-04 -1.221490e-05 1.823604e-02 1.114450e-04 -4.945699e-07
195            2.448985e-02 6.210682e-04 -1.176600e-05 6.253828e-03 5.096183e-04 -1.127257e-05 1.823602e-02 1.114499e-04 -4.934255e-07
196            2.448987e-02 6.212206e-04 -1.084773e-05 6.253877e-03 5.097655e-04 -1.035601e-05 1.823599e-02 1.114551e-04 -4.917257e-07
197            2.448989e-02 6.213605e-04 -9.960403e-06 6.253925e-03 5.098999e-04 -9.470891e-06 1.823597e-02 1.114606e-04 -4.895121e-07
198            2.448992e-02 6.214883e-04 -9.109002e-06 6.253972e-03 5.100222e-04 -8.622137e-06 1.823595e-02 1.114661e-04 -4.868652e-07
199            2.448994e-02 6.216039e-04 -8.298424e-06 6.254020e-03 5.101323e-04 -7.814605e-06 1.823592e-02 1.114716e-04 -4.838188e-07
200            2.448997e-02 6.217075e-04 -7.533144e-06 6.254066e-03 5.102306e-04 -7.052719e-06 1.823590e-02 1.114769e-04 -4.804250e-07
201            2.448999e-02 6.217996e-04 -6.816649e-06 6.254114e-03 5.103178e-04 -6.339725e-06 1.823588e-02 1.114817e-04 -4.769245e-07
202            2.449002e-02 6.218808e-04 -6.150955e-06 6.254162e-03 5.103945e-04 -5.677695e-06 1.823586e-02 1.114863e-04 -4.732594e-07
203            2.449005e-02 6.219519e-04 -5.537193e-06 6.254213e-03 5.104613e-04 -5.067755e-06 1.823584e-02 1.114906e-04 -4.694386e-07
204            2.449008e-02 6.220138e-04 -4.975485e-06 6.254264e-03 5.105189e-04 -4.510001e-06 1.823582e-02 1.114949e-04 -4.654840e-07
205            2.449011e-02 6.220672e-04 -4.465595e-06 6.254315e-03 5.105681e-04 -4.004163e-06 1.823580e-02 1.114991e-04 -4.614317e-07
206            2.449015e-02 6.221126e-04 -4.006521e-06 6.254367e-03 5.106092e-04 -3.549247e-06 1.823578e-02 1.115034e-04 -4.572731e-07
207            2.449018e-02 6.221506e-04 -3.596859e-06 6.254419e-03 5.106429e-04 -3.143831e-06 1.823576e-02 1.115076e-04 -4.530276e-07
208            2.449021e-02 6.221819e-04 -3.234925e-06 6.254472e-03 5.106700e-04 -2.786224e-06 1.823574e-02 1.115119e-04 -4.487013e-07
209            2.449022e-02 6.222121e-04 -3.021680e-06 6.254499e-03 5.106957e-04 -2.577351e-06 1.823572e-02 1.115164e-04 -4.443289e-07
210            2.449023e-02 6.222423e-04 -2.816984e-06 6.254526e-03 5.107215e-04 -2.376754e-06 1.823570e-02 1.115207e-04 -4.402296e-07
211            2.449026e-02 6.222679e-04 -2.529088e-06 6.254578e-03 5.107430e-04 -2.092889e-06 1.823568e-02 1.115249e-04 -4.361992e-07
212            2.449027e-02 6.222919e-04 -2.370086e-06 6.254604e-03 5.107624e-04 -1.938362e-06 1.823567e-02 1.115295e-04 -4.317243e-07
213            2.449030e-02 6.223071e-04 -2.166047e-06 6.254656e-03 5.107734e-04 -1.738265e-06 1.823565e-02 1.115337e-04 -4.277812e-07
214            2.449034e-02 6.223137e-04 -2.018303e-06 6.254712e-03 5.107756e-04 -1.594868e-06 1.823563e-02 1.115381e-04 -4.234349e-07
215            2.449039e-02 6.223127e-04 -1.924237e-06 6.254773e-03 5.107703e-04 -1.505022e-06 1.823562e-02 1.115424e-04 -4.192144e-07
216            2.449044e-02 6.223054e-04 -1.878656e-06 6.254837e-03 5.107588e-04 -1.463580e-06 1.823560e-02 1.115466e-04 -4.150765e-07
217            2.449049e-02 6.222930e-04 -1.876515e-06 6.254905e-03 5.107423e-04 -1.465454e-06 1.823558e-02 1.115507e-04 -4.110608e-07
218            2.449054e-02 6.222762e-04 -1.912900e-06 6.254975e-03 5.107218e-04 -1.505640e-06 1.823557e-02 1.115544e-04 -4.072596e-07
219            2.449060e-02 6.222563e-04 -1.983213e-06 6.255045e-03 5.106984e-04 -1.579555e-06 1.823555e-02 1.115578e-04 -4.036581e-07
220            2.449065e-02 6.222340e-04 -2.083312e-06 6.255114e-03 5.106729e-04 -1.683120e-06 1.823554e-02 1.115611e-04 -4.001917e-07