# Force       
# CofR        : (0.000000e+00 0.000000e+00 0.000000e+00)
#
# Time        	total_x total_y total_z	pressure_x pressure_y pressure_z	viscous_x viscous_y viscous_z
1              2.156996e+00 -6.580498e-02 -4.484717e-03 1.944533e+00 -6.573214e-02 -4.491860e-03 2.124631e-01 -7.283405e-05 7.142572e-06
2              2.848053e+00 -7.863551e-02 -4.050493e-03 2.635506e+00 -7.875938e-02 -4.068396e-03 2.125464e-01 1.238707e-04 1.790245e-05
3              2.749908e+00 -7.221109e-02 5.476455e-05 2.536932e+00 -7.249145e-02 2.004386e-05 2.129754e-01 2.803565e-04 3.472069e-05
4              2.186281e+00 -5.002402e-02 4.632458e-03 1.972750e+00 -5.042538e-02 4.582594e-03 2.135305e-01 4.013608e-04 4.986421e-05
5              1.440976e+00 -1.986179e-02 7.523065e-03 1.226722e+00 -2.035386e-02 7.464953e-03 2.142530e-01 4.920657e-04 5.811256e-05
6              7.364236e-01 1.050886e-02 7.804461e-03 5.212734e-01 9.956385e-03 7.742670e-03 2.151501e-01 5.524711e-04 6.179109e-05
7              2.096330e-01 3.534569e-02 5.982557e-03 -6.514668e-03 3.476543e-02 5.924309e-03 2.161476e-01 5.802671e-04 5.824774e-05
8              -6.606897e-02 5.046208e-02 3.240562e-03 -2.831917e-01 4.988114e-02 3.192306e-03 2.171228e-01 5.809377e-04 4.825597e-05
9              -1.459717e-01 5.656384e-02 -7.748297e-05 -3.639198e-01 5.599599e-02 -1.172799e-04 2.179481e-01 5.678519e-04 3.979695e-05
10             -8.803286e-02 5.481147e-02 -2.330700e-03 -3.065190e-01 5.425411e-02 -2.361186e-03 2.184861e-01 5.573606e-04 3.048688e-05
11             4.595088e-02 4.658649e-02 -2.926951e-03 -1.727045e-01 4.603127e-02 -2.948140e-03 2.186554e-01 5.552221e-04 2.118944e-05
12             2.012182e-01 3.415187e-02 -1.538823e-03 -1.723836e-02 3.358837e-02 -1.553880e-03 2.184565e-01 5.634939e-04 1.505693e-05
13             3.364650e-01 2.027154e-02 1.527015e-03 1.185173e-01 1.968749e-02 1.513920e-03 2.179477e-01 5.840431e-04 1.309442e-05
14             4.286209e-01 7.569347e-03 5.404467e-03 2.114100e-01 6.955527e-03 5.389705e-03 2.172109e-01 6.138202e-04 1.476187e-05
15             4.719043e-01 -1.905057e-03 8.960439e-03 2.555594e-01 -2.553779e-03 8.942352e-03 2.163449e-01 6.487228e-04 1.808709e-05
16             4.757314e-01 -7.542863e-03 1.138303e-02 2.603053e-01 -8.227155e-03 1.135844e-02 2.154261e-01 6.842923e-04 2.459554e-05
17             4.555860e-01 -9.829661e-03 1.270864e-02 2.409491e-01 -1.054692e-02 1.267692e-02 2.146370e-01 7.172568e-04 3.171373e-05
18             4.244717e-01 -9.236741e-03 1.289591e-02 2.105925e-01 -9.980810e-03 1.285816e-02 2.138792e-01 7.440689e-04 3.775163e-05
19             3.935397e-01 -6.580558e-03 1.196943e-02 1.803784e-01 -7.344041e-03 1.192764e-02 2.131613e-01 7.634829e-04 4.178794e-05
20             3.701821e-01 -2.949367e-03 1.016657e-02 1.577031e-01 -3.725196e-03 1.012179e-02 2.124790e-01 7.758292e-04 4.478755e-05
21             3.574128e-01 5.867462e-04 7.895532e-03 1.455924e-01 -1.963492e-04 7.849025e-03 2.118204e-01 7.830955e-04 4.650648e-05
22             3.545233e-01 3.250966e-03 5.594307e-03 1.433517e-01 2.463222e-03 5.546890e-03 2.111716e-01 7.877449e-04 4.741763e-05
23             3.587199e-01 4.712689e-03 3.522187e-03 1.481985e-01 3.921043e-03 3.474657e-03 2.105214e-01 7.916463e-04 4.753021e-05
24             3.667015e-01 4.922361e-03 1.826794e-03 1.568399e-01 4.125207e-03 1.779988e-03 2.098616e-01 7.971548e-04 4.680621e-05
25             3.751074e-01 4.057498e-03 6.497892e-04 1.659180e-01 3.253088e-03 6.038262e-04 2.091894e-01 8.044106e-04 4.596303e-05
26             3.817500e-01 2.520569e-03 1.391267e-05 1.732399e-01 1.706008e-03 -3.039123e-05 2.085102e-01 8.145611e-04 4.430391e-05
27             3.857224e-01 6.604459e-04 -1.035172e-04 1.778936e-01 -1.665935e-04 -1.467337e-04 2.078288e-01 8.270394e-04 4.321658e-05
28             3.869280e-01 -1.205325e-03 2.164606e-04 1.797760e-01 -2.046094e-03 1.750425e-04 2.071520e-01 8.407690e-04 4.141810e-05
29             3.857836e-01 -2.853439e-03 8.562452e-04 1.792989e-01 -3.708348e-03 8.157251e-04 2.064847e-01 8.549094e-04 4.052014e-05
30             3.829770e-01 -4.142489e-03 1.689138e-03 1.771431e-01 -5.010722e-03 1.649706e-03 2.058339e-01 8.682330e-04 3.943242e-05
31             3.792579e-01 -5.010211e-03 2.570502e-03 1.740536e-01 -5.890402e-03 2.531525e-03 2.052042e-01 8.801902e-04 3.897709e-05
32             3.753115e-01 -5.473565e-03 3.365990e-03 1.707127e-01 -6.363660e-03 3.327507e-03 2.045988e-01 8.900951e-04 3.848288e-05
33             3.716405e-01 -5.614338e-03 3.974404e-03 1.676228e-01 -6.512271e-03 3.936146e-03 2.040177e-01 8.979326e-04 3.825756e-05
34             3.685386e-01 -5.548515e-03 4.338914e-03 1.650766e-01 -6.452219e-03 4.300930e-03 2.034620e-01 9.037044e-04 3.798431e-05
35             3.661108e-01 -5.392462e-03 4.440516e-03 1.631806e-01 -6.300173e-03 4.402784e-03 2.029301e-01 9.077110e-04 3.773232e-05
36             3.643307e-01 -5.244278e-03 4.307659e-03 1.619106e-01 -6.154600e-03 4.270138e-03 2.024201e-01 9.103217e-04 3.752080e-05
37             3.630824e-01 -5.176535e-03 4.023790e-03 1.611526e-01 -6.088550e-03 3.986565e-03 2.019298e-01 9.120151e-04 3.722553e-05
38             3.622059e-01 -5.226004e-03 3.680098e-03 1.607476e-01 -6.139154e-03 3.643264e-03 2.014583e-01 9.131499e-04 3.683349e-05
39             3.615479e-01 -5.393584e-03 3.343208e-03 1.605433e-01 -6.307623e-03 3.306782e-03 2.010045e-01 9.140386e-04 3.642620e-05
40             3.609895e-01 -5.655946e-03 3.056376e-03 1.604219e-01 -6.570728e-03 3.020359e-03 2.005676e-01 9.147823e-04 3.601752e-05
41             3.604580e-01 -5.976337e-03 2.847251e-03 1.603109e-01 -6.891745e-03 2.811676e-03 2.001472e-01 9.154080e-04 3.557561e-05
42             3.599192e-01 -6.316292e-03 2.726553e-03 1.601761e-01 -7.232162e-03 2.691471e-03 1.997431e-01 9.158700e-04 3.508163e-05
43             3.593695e-01 -6.643156e-03 2.691709e-03 1.600139e-01 -7.559228e-03 2.657173e-03 1.993556e-01 9.160722e-04 3.453586e-05
44             3.588250e-01 -6.930993e-03 2.729760e-03 1.598402e-01 -7.846904e-03 2.695811e-03 1.989848e-01 9.159106e-04 3.394981e-05
45             3.583046e-01 -7.161657e-03 2.815580e-03 1.596738e-01 -8.076909e-03 2.782209e-03 1.986308e-01 9.152528e-04 3.337119e-05
46             3.578183e-01 -7.330213e-03 2.917952e-03 1.595247e-01 -8.244239e-03 2.885133e-03 1.982935e-01 9.140254e-04 3.281894e-05
47             3.573680e-01 -7.445994e-03 3.011616e-03 1.593954e-01 -8.358192e-03 2.979310e-03 1.979726e-01 9.121976e-04 3.230601e-05
48             3.569536e-01 -7.526293e-03 3.082568e-03 1.592860e-01 -8.436076e-03 3.050758e-03 1.976676e-01 9.097834e-04 3.181010e-05
49             3.565746e-01 -7.589000e-03 3.125715e-03 1.591964e-01 -8.495795e-03 3.094353e-03 1.973782e-01 9.067943e-04 3.136188e-05
50             3.562280e-01 -7.648170e-03 3.141228e-03 1.591242e-01 -8.551455e-03 3.110262e-03 1.971039e-01 9.032857e-04 3.096574e-05
51             3.559081e-01 -7.712036e-03 3.132856e-03 1.590639e-01 -8.611376e-03 3.102232e-03 1.968441e-01 8.993399e-04 3.062466e-05
52             3.556065e-01 -7.782826e-03 3.107851e-03 1.590079e-01 -8.677867e-03 3.077505e-03 1.965986e-01 8.950409e-04 3.034584e-05
53             3.553149e-01 -7.857569e-03 3.076249e-03 1.589482e-01 -8.748028e-03 3.046120e-03 1.963668e-01 8.904591e-04 3.012844e-05
54             3.550285e-01 -7.931934e-03 3.047150e-03 1.588803e-01 -8.817605e-03 3.017175e-03 1.961483e-01 8.856715e-04 2.997553e-05
55             3.547464e-01 -8.003705e-03 3.025304e-03 1.588039e-01 -8.884439e-03 2.995430e-03 1.959425e-01 8.807344e-04 2.987446e-05
56             3.544350e-01 -8.070543e-03 3.012971e-03 1.587191e-01 -8.946068e-03 2.983116e-03 1.957159e-01 8.755259e-04 2.985504e-05
57             3.541294e-01 -8.130355e-03 3.010280e-03 1.586250e-01 -9.000599e-03 2.980401e-03 1.955044e-01 8.702440e-04 2.987936e-05
58             3.538305e-01 -8.182608e-03 3.016650e-03 1.585226e-01 -9.047512e-03 2.986715e-03 1.953079e-01 8.649033e-04 2.993560e-05
59             3.535405e-01 -8.226502e-03 3.031168e-03 1.584145e-01 -9.086023e-03 3.001157e-03 1.951261e-01 8.595206e-04 3.001119e-05
60             3.532632e-01 -8.259811e-03 3.051314e-03 1.583050e-01 -9.113917e-03 3.021214e-03 1.949582e-01 8.541058e-04 3.010021e-05
61             3.530033e-01 -8.280903e-03 3.072270e-03 1.581996e-01 -9.129589e-03 3.042079e-03 1.948037e-01 8.486859e-04 3.019063e-05
62             3.527630e-01 -8.291385e-03 3.090707e-03 1.581011e-01 -9.134660e-03 3.060433e-03 1.946619e-01 8.432750e-04 3.027365e-05
63             3.525416e-01 -8.293725e-03 3.106068e-03 1.580096e-01 -9.131612e-03 3.075715e-03 1.945321e-01 8.378863e-04 3.035261e-05
64             3.523376e-01 -8.289220e-03 3.118981e-03 1.579242e-01 -9.121754e-03 3.088558e-03 1.944134e-01 8.325343e-04 3.042277e-05
65             3.521498e-01 -8.278045e-03 3.130011e-03 1.578444e-01 -9.105278e-03 3.099521e-03 1.943053e-01 8.272333e-04 3.049016e-05
66             3.519772e-01 -8.259829e-03 3.139627e-03 1.577701e-01 -9.081826e-03 3.109069e-03 1.942070e-01 8.219973e-04 3.055777e-05
67             3.518193e-01 -8.233396e-03 3.148298e-03 1.577015e-01 -9.050236e-03 3.117669e-03 1.941178e-01 8.168399e-04 3.062911e-05
68             3.516767e-01 -8.197315e-03 3.156507e-03 1.576396e-01 -9.009089e-03 3.125803e-03 1.940371e-01 8.117742e-04 3.070402e-05
69             3.515496e-01 -8.154536e-03 3.164784e-03 1.575854e-01 -8.961347e-03 3.134002e-03 1.939642e-01 8.068115e-04 3.078250e-05
70             3.514368e-01 -8.110295e-03 3.173623e-03 1.575383e-01 -8.912257e-03 3.142759e-03 1.938985e-01 8.019620e-04 3.086388e-05
71             3.513354e-01 -8.066785e-03 3.183057e-03 1.574959e-01 -8.864016e-03 3.152110e-03 1.938395e-01 7.972308e-04 3.094684e-05
72             3.512426e-01 -8.022650e-03 3.192907e-03 1.574560e-01 -8.815273e-03 3.161879e-03 1.937865e-01 7.926230e-04 3.102834e-05
73             3.511568e-01 -7.975019e-03 3.203048e-03 1.574176e-01 -8.763159e-03 3.171941e-03 1.937392e-01 7.881395e-04 3.110730e-05
74             3.510771e-01 -7.921877e-03 3.213366e-03 1.573801e-01 -8.705658e-03 3.182181e-03 1.936969e-01 7.837811e-04 3.118538e-05
75             3.510029e-01 -7.862372e-03 3.223714e-03 1.573436e-01 -8.641919e-03 3.192451e-03 1.936593e-01 7.795465e-04 3.126327e-05
76             3.509343e-01 -7.796047e-03 3.234008e-03 1.573083e-01 -8.571479e-03 3.202667e-03 1.936259e-01 7.754329e-04 3.134100e-05
77             3.508713e-01 -7.722232e-03 3.244199e-03 1.572749e-01 -8.493670e-03 3.212780e-03 1.935964e-01 7.714381e-04 3.141892e-05
78             3.508144e-01 -7.641811e-03 3.254162e-03 1.572441e-01 -8.409376e-03 3.222661e-03 1.935704e-01 7.675644e-04 3.150041e-05
79             3.507637e-01 -7.560206e-03 3.263557e-03 1.572162e-01 -8.324028e-03 3.231980e-03 1.935475e-01 7.638217e-04 3.157713e-05
80             3.507189e-01 -7.482975e-03 3.272087e-03 1.571915e-01 -8.243183e-03 3.240438e-03 1.935274e-01 7.602074e-04 3.164889e-05
81             3.506790e-01 -7.411661e-03 3.279671e-03 1.571691e-01 -8.168379e-03 3.247954e-03 1.935099e-01 7.567183e-04 3.171721e-05
82             3.506432e-01 -7.344289e-03 3.286417e-03 1.571485e-01 -8.097642e-03 3.254635e-03 1.934947e-01 7.533524e-04 3.178254e-05
83             3.506106e-01 -7.277969e-03 3.292473e-03 1.571291e-01 -8.028078e-03 3.260624e-03 1.934816e-01 7.501090e-04 3.184804e-05
84             3.505807e-01 -7.210731e-03 3.297950e-03 1.571104e-01 -7.957720e-03 3.266034e-03 1.934703e-01 7.469882e-04 3.191644e-05
85             3.505531e-01 -7.141818e-03 3.302937e-03 1.570925e-01 -7.885808e-03 3.270948e-03 1.934607e-01 7.439905e-04 3.198911e-05
86             3.505277e-01 -7.070940e-03 3.307511e-03 1.570753e-01 -7.812056e-03 3.275444e-03 1.934525e-01 7.411159e-04 3.206771e-05
87             3.505047e-01 -6.997553e-03 3.311735e-03 1.570591e-01 -7.735916e-03 3.279579e-03 1.934456e-01 7.383632e-04 3.215561e-05
88             3.504846e-01 -6.922369e-03 3.315677e-03 1.570447e-01 -7.658154e-03 3.283476e-03 1.934398e-01 7.357857e-04 3.220061e-05
89             3.504675e-01 -6.849800e-03 3.319564e-03 1.570324e-01 -7.583145e-03 3.287309e-03 1.934351e-01 7.333456e-04 3.225489e-05
90             3.504532e-01 -6.784377e-03 3.323624e-03 1.570219e-01 -7.515425e-03 3.291318e-03 1.934313e-01 7.310486e-04 3.230669e-05
91             3.504409e-01 -6.727264e-03 3.327963e-03 1.570126e-01 -7.456152e-03 3.295601e-03 1.934283e-01 7.288881e-04 3.236125e-05
92             3.504300e-01 -6.676471e-03 3.332512e-03 1.570041e-01 -7.403336e-03 3.300097e-03 1.934260e-01 7.268654e-04 3.241574e-05
93             3.504200e-01 -6.629104e-03 3.337147e-03 1.569958e-01 -7.354084e-03 3.304674e-03 1.934242e-01 7.249796e-04 3.247256e-05
94             3.504105e-01 -6.583114e-03 3.341761e-03 1.569875e-01 -7.306346e-03 3.309229e-03 1.934230e-01 7.232317e-04 3.253122e-05
95             3.504013e-01 -6.537481e-03 3.346303e-03 1.569791e-01 -7.259103e-03 3.313711e-03 1.934222e-01 7.216215e-04 3.259210e-05
96             3.503924e-01 -6.491768e-03 3.350773e-03 1.569706e-01 -7.211916e-03 3.318118e-03 1.934218e-01 7.201483e-04 3.265531e-05
97             3.503837e-01 -6.445542e-03 3.355190e-03 1.569620e-01 -7.164353e-03 3.322469e-03 1.934217e-01 7.188111e-04 3.272086e-05
98             3.503754e-01 -6.399013e-03 3.359624e-03 1.569534e-01 -7.116621e-03 3.326835e-03 1.934220e-01 7.176083e-04 3.278825e-05
99             3.503675e-01 -6.354297e-03 3.364241e-03 1.569451e-01 -7.070833e-03 3.331384e-03 1.934225e-01 7.165361e-04 3.285703e-05
100            3.503605e-01 -6.314092e-03 3.369174e-03 1.569372e-01 -7.029687e-03 3.336250e-03 1.934233e-01 7.155958e-04 3.292378e-05
101            3.503541e-01 -6.279222e-03 3.374380e-03 1.569298e-01 -6.993995e-03 3.341389e-03 1.934243e-01 7.147725e-04 3.299068e-05
102            3.503475e-01 -6.240681e-03 3.379954e-03 1.569217e-01 -6.954751e-03 3.346895e-03 1.934257e-01 7.140701e-04 3.305841e-05
103            3.503405e-01 -6.200929e-03 3.385649e-03 1.569132e-01 -6.914395e-03 3.352524e-03 1.934273e-01 7.134662e-04 3.312495e-05
104            3.503338e-01 -6.168849e-03 3.391065e-03 1.569052e-01 -6.881795e-03 3.357877e-03 1.934286e-01 7.129463e-04 3.318786e-05
105            3.503274e-01 -6.142733e-03 3.396151e-03 1.568974e-01 -6.855255e-03 3.362903e-03 1.934300e-01 7.125225e-04 3.324792e-05
106            3.503216e-01 -6.120738e-03 3.400884e-03 1.568902e-01 -6.832929e-03 3.367579e-03 1.934315e-01 7.121916e-04 3.330527e-05
107            3.503165e-01 -6.101112e-03 3.405272e-03 1.568835e-01 -6.813060e-03 3.371913e-03 1.934330e-01 7.119480e-04 3.335952e-05
108            3.503122e-01 -6.082422e-03 3.409349e-03 1.568777e-01 -6.794207e-03 3.375938e-03 1.934345e-01 7.117849e-04 3.341039e-05
109            3.503090e-01 -6.063785e-03 3.413159e-03 1.568729e-01 -6.775479e-03 3.379701e-03 1.934361e-01 7.116941e-04 3.345744e-05
110            3.503071e-01 -6.044965e-03 3.416739e-03 1.568694e-01 -6.756633e-03 3.383238e-03 1.934377e-01 7.116671e-04 3.350033e-05
111            3.503064e-01 -6.026174e-03 3.420102e-03 1.568671e-01 -6.737868e-03 3.386563e-03 1.934393e-01 7.116948e-04 3.353862e-05
112            3.503069e-01 -6.007710e-03 3.423244e-03 1.568660e-01 -6.719479e-03 3.389672e-03 1.934409e-01 7.117688e-04 3.357201e-05
113            3.503082e-01 -5.989795e-03 3.426159e-03 1.568657e-01 -6.701676e-03 3.392559e-03 1.934425e-01 7.118814e-04 3.360031e-05
114            3.503102e-01 -5.972595e-03 3.428848e-03 1.568662e-01 -6.684621e-03 3.395224e-03 1.934440e-01 7.120258e-04 3.362355e-05
115            3.503127e-01 -5.956278e-03 3.431315e-03 1.568671e-01 -6.668475e-03 3.397674e-03 1.934456e-01 7.121964e-04 3.364185e-05
116            3.503139e-01 -5.944810e-03 3.433286e-03 1.568668e-01 -6.657191e-03 3.399630e-03 1.934471e-01 7.123806e-04 3.365561e-05
117            3.503165e-01 -5.929785e-03 3.435506e-03 1.568680e-01 -6.642371e-03 3.401841e-03 1.934486e-01 7.125863e-04 3.366411e-05
118            3.503180e-01 -5.919070e-03 3.437210e-03 1.568680e-01 -6.631871e-03 3.403540e-03 1.934500e-01 7.128009e-04 3.366984e-05
119            3.503213e-01 -5.906018e-03 3.439179e-03 1.568698e-01 -6.619048e-03 3.405509e-03 1.934515e-01 7.130300e-04 3.367028e-05
120            3.503253e-01 -5.894305e-03 3.440917e-03 1.568724e-01 -6.607570e-03 3.407247e-03 1.934529e-01 7.132654e-04 3.366976e-05
121            3.503299e-01 -5.883788e-03 3.442419e-03 1.568757e-01 -6.597291e-03 3.408754e-03 1.934542e-01 7.135034e-04 3.366472e-05
122            3.503351e-01 -5.874290e-03 3.443688e-03 1.568796e-01 -6.588028e-03 3.410029e-03 1.934555e-01 7.137383e-04 3.365840e-05
123            3.503405e-01 -5.865660e-03 3.444737e-03 1.568837e-01 -6.579630e-03 3.411089e-03 1.934568e-01 7.139700e-04 3.364815e-05
124            3.503460e-01 -5.857783e-03 3.445601e-03 1.568880e-01 -6.571977e-03 3.411964e-03 1.934580e-01 7.141947e-04 3.363699e-05
125            3.503515e-01 -5.850596e-03 3.446345e-03 1.568924e-01 -6.565008e-03 3.412722e-03 1.934591e-01 7.144127e-04 3.362329e-05
126            3.503568e-01 -5.844076e-03 3.447027e-03 1.568966e-01 -6.558698e-03 3.413417e-03 1.934602e-01 7.146215e-04 3.360956e-05
127            3.503620e-01 -5.838229e-03 3.447699e-03 1.569007e-01 -6.553050e-03 3.414105e-03 1.934613e-01 7.148215e-04 3.359451e-05
128            3.503670e-01 -5.833050e-03 3.448389e-03 1.569047e-01 -6.548061e-03 3.414809e-03 1.934623e-01 7.150110e-04 3.358015e-05
129            3.503718e-01 -5.828534e-03 3.449114e-03 1.569085e-01 -6.543724e-03 3.415548e-03 1.934633e-01 7.151909e-04 3.356534e-05
130            3.503764e-01 -5.824658e-03 3.449876e-03 1.569122e-01 -6.540018e-03 3.416324e-03 1.934642e-01 7.153598e-04 3.355173e-05
131            3.503808e-01 -5.821406e-03 3.450678e-03 1.569158e-01 -6.536925e-03 3.417139e-03 1.934650e-01 7.155190e-04 3.353836e-05
132            3.503851e-01 -5.818747e-03 3.451506e-03 1.569193e-01 -6.534414e-03 3.417979e-03 1.934658e-01 7.156677e-04 3.352643e-05
133            3.503892e-01 -5.816554e-03 3.452313e-03 1.569226e-01 -6.532361e-03 3.418798e-03 1.934666e-01 7.158067e-04 3.351505e-05
134            3.503930e-01 -5.814636e-03 3.453035e-03 1.569257e-01 -6.530572e-03 3.419530e-03 1.934673e-01 7.159362e-04 3.350516e-05
135            3.503964e-01 -5.812864e-03 3.453655e-03 1.569284e-01 -6.528922e-03 3.420159e-03 1.934680e-01 7.160574e-04 3.349592e-05
136            3.503994e-01 -5.811228e-03 3.454203e-03 1.569308e-01 -6.527398e-03 3.420715e-03 1.934686e-01 7.161702e-04 3.348801e-05
137            3.504021e-01 -5.809768e-03 3.454723e-03 1.569329e-01 -6.526044e-03 3.421242e-03 1.934692e-01 7.162762e-04 3.348068e-05
138            3.504047e-01 -5.808518e-03 3.455247e-03 1.569349e-01 -6.524893e-03 3.421772e-03 1.934698e-01 7.163751e-04 3.347441e-05
139            3.504070e-01 -5.807485e-03 3.455794e-03 1.569367e-01 -6.523953e-03 3.422326e-03 1.934703e-01 7.164682e-04 3.346844e-05
140            3.504092e-01 -5.806655e-03 3.456373e-03 1.569385e-01 -6.523210e-03 3.422910e-03 1.934708e-01 7.165553e-04 3.346308e-05
141            3.504113e-01 -5.806013e-03 3.456993e-03 1.569401e-01 -6.522650e-03 3.423535e-03 1.934712e-01 7.166376e-04 3.345761e-05
