/*--------------------------------*- C++ -*----------------------------------*\
| =========                 |                                                 |
| \\      /  F ield         | OpenFOAM: The Open Source CFD Toolbox           |
|  \\    /   O peration     | Version:  2512                                  |
|   \\  /    A nd           | Website:  www.openfoam.com                      |
|    \\/     M anipulation  |                                                 |
\*---------------------------------------------------------------------------*/
FoamFile
{
    version     2.0;
    format      ascii;
    arch        "LSB;label=32;scalar=64";
    class       volScalarField;
    location    "166";
    object      p;
}
// * * * * * * * * * * * * * * * * * * * * * * * * * * * * * * * * * * * * * //

dimensions      [0 2 -2 0 0 0 0];

internalField   nonuniform List<scalar> 
335663
(
0.000327218
0.000326806
0.000325756
0.000324073
0.000321732
0.000318639
0.000314668
0.000309667
0.000303453
0.000295811
0.000286494
0.000275217
0.00026167
0.000245518
0.000226419
0.000204037
0.000178073
0.000148296
0.000114589
7.69976e-05
3.57842e-05
-8.52055e-06
-5.5079e-05
-0.000102731
-0.000150013
-0.000195225
-0.000236548
-0.000272205
-0.000300653
-0.000320769
-0.00033199
-0.00033439
-0.000328642
-0.000315914
-0.000297686
-0.00027556
-0.000251083
-0.000225626
-0.000200309
-0.000175982
-0.000153236
-0.000132434
-0.000113754
-9.72323e-05
-8.28048e-05
-7.03393e-05
-5.96645e-05
-5.05903e-05
-4.29231e-05
-3.64756e-05
-3.10736e-05
-2.65592e-05
-2.27923e-05
-1.96505e-05
-1.70286e-05
-1.48368e-05
-1.29994e-05
-1.14531e-05
-1.01451e-05
-9.03186e-06
-8.0774e-06
-7.25229e-06
-6.53246e-06
-5.89824e-06
-5.33367e-06
-4.82578e-06
-4.36408e-06
-3.94007e-06
-3.54692e-06
-3.17906e-06
-2.832e-06
-2.50206e-06
-2.18622e-06
-1.88197e-06
-1.58722e-06
-1.30014e-06
-1.01917e-06
-7.42975e-07
-4.69205e-07
-2.10608e-07
0.00032734
0.000326932
0.000325892
0.000324225
0.000321904
0.000318839
0.000314902
0.000309942
0.000303776
0.000296191
0.000286937
0.00027573
0.000262257
0.000246182
0.000227157
0.00020484
0.000178926
0.000149173
0.000115453
7.77997e-05
3.64653e-05
-8.02825e-06
-5.4846e-05
-0.000102822
-0.000150479
-0.000196089
-0.000237798
-0.000273789
-0.000302478
-0.000322712
-0.000333917
-0.00033617
-0.000330172
-0.000317125
-0.000298553
-0.000276092
-0.000251316
-0.000225613
-0.000200108
-0.000175648
-0.000152819
-0.000131974
-0.000113283
-9.67736e-05
-8.23733e-05
-6.99443e-05
-5.93106e-05
-5.02785e-05
-4.26523e-05
-3.62431e-05
-3.0876e-05
-2.63927e-05
-2.26529e-05
-1.95345e-05
-1.69325e-05
-1.47575e-05
-1.29343e-05
-1.13997e-05
-1.01014e-05
-8.99616e-06
-8.04825e-06
-7.22849e-06
-6.51301e-06
-5.88233e-06
-5.32062e-06
-4.81504e-06
-4.35519e-06
-3.93269e-06
-3.54075e-06
-3.17387e-06
-2.82762e-06
-2.49834e-06
-2.18305e-06
-1.87927e-06
-1.58493e-06
-1.29823e-06
-1.01762e-06
-7.41789e-07
-4.68466e-07
-2.10035e-07
0.00032758
0.00032718
0.00032616
0.000324523
0.000322245
0.000319234
0.000315365
0.000310485
0.000304416
0.000296942
0.000287813
0.000276744
0.000263419
0.000247496
0.000228618
0.000206433
0.000180618
0.000150914
0.000117171
7.93981e-05
3.78259e-05
-7.03998e-06
-5.4371e-05
-0.000102992
-0.000151393
-0.000197797
-0.000240278
-0.000276935
-0.000306107
-0.00032658
-0.000337751
-0.000339711
-0.000333212
-0.00031953
-0.000300271
-0.000277143
-0.000251774
-0.000225582
-0.000199704
-0.000174982
-0.000151989
-0.000131061
-0.000112349
-9.58637e-05
-8.15179e-05
-6.91615e-05
-5.86093e-05
-4.9661e-05
-4.2116e-05
-3.57829e-05
-3.04849e-05
-2.60629e-05
-2.23769e-05
-1.93048e-05
-1.67423e-05
-1.46007e-05
-1.28054e-05
-1.12941e-05
-1.00151e-05
-8.92575e-06
-7.99086e-06
-7.18174e-06
-6.47492e-06
-5.85129e-06
-5.29529e-06
-4.79433e-06
-4.33823e-06
-3.91875e-06
-3.52925e-06
-3.16437e-06
-2.81975e-06
-2.49182e-06
-2.17766e-06
-1.87485e-06
-1.58136e-06
-1.29546e-06
-1.01559e-06
-7.40477e-07
-4.67876e-07
-2.10038e-07
0.000327934
0.000327545
0.000326553
0.000324962
0.000322746
0.000319815
0.000316045
0.000311286
0.000305358
0.000298048
0.000289104
0.000278241
0.000265135
0.000249437
0.000230779
0.000208792
0.000183128
0.000153501
0.000119728
8.1783e-05
3.98632e-05
-5.55135e-06
-5.36421e-05
-0.00010322
-0.000152732
-0.000200324
-0.00024396
-0.000281617
-0.000311514
-0.000332344
-0.000343463
-0.000344982
-0.000337728
-0.000323092
-0.000302803
-0.00027868
-0.00025243
-0.000225514
-0.000199085
-0.000173979
-0.000150747
-0.0001297
-0.00011096
-9.45138e-05
-8.02508e-05
-6.80036e-05
-5.7573e-05
-4.87492e-05
-4.13249e-05
-3.51044e-05
-2.99085e-05
-2.55773e-05
-2.19705e-05
-1.89667e-05
-1.64624e-05
-1.43699e-05
-1.26157e-05
-1.11386e-05
-9.88792e-06
-8.82178e-06
-7.90596e-06
-7.1124e-06
-6.41825e-06
-5.80489e-06
-5.2572e-06
-4.76295e-06
-4.31225e-06
-3.89712e-06
-3.51115e-06
-3.14912e-06
-2.80682e-06
-2.48081e-06
-2.16825e-06
-1.86682e-06
-1.57454e-06
-1.28974e-06
-1.01093e-06
-7.36854e-07
-4.65321e-07
-2.08599e-07
0.000328392
0.000328018
0.000327064
0.000325532
0.000323396
0.000320569
0.000316928
0.000312325
0.000306582
0.000299485
0.000290784
0.000280189
0.000267371
0.00025197
0.000233603
0.000211877
0.000186417
0.000156899
0.000123095
8.49342e-05
4.2568e-05
-3.55872e-06
-5.26425e-05
-0.000103478
-0.000154457
-0.00020362
-0.000248792
-0.000287782
-0.000318645
-0.000339951
-0.000350998
-0.000351923
-0.000343658
-0.000327751
-0.000306095
-0.000280657
-0.000253248
-0.000225386
-0.00019824
-0.000172638
-0.000149101
-0.000127905
-0.000109136
-9.27449e-05
-7.8594e-05
-6.64919e-05
-5.62221e-05
-4.7562e-05
-4.02958e-05
-3.42224e-05
-2.91599e-05
-2.4947e-05
-2.14433e-05
-1.85284e-05
-1.60997e-05
-1.40711e-05
-1.23703e-05
-1.09377e-05
-9.72376e-06
-8.6879e-06
-7.7969e-06
-7.02363e-06
-6.346e-06
-5.74605e-06
-5.20924e-06
-4.72378e-06
-4.28019e-06
-3.87082e-06
-3.4895e-06
-3.13127e-06
-2.79207e-06
-2.46863e-06
-2.15823e-06
-1.85865e-06
-1.56801e-06
-1.28471e-06
-1.00731e-06
-7.34606e-07
-4.64389e-07
-2.0873e-07
0.000328945
0.000328588
0.000327679
0.000326219
0.000324181
0.000321479
0.000317994
0.00031358
0.00030806
0.000301224
0.000292818
0.000282549
0.000270082
0.000255046
0.000237038
0.000215638
0.000190436
0.000161061
0.000127234
8.88241e-05
4.59265e-05
-1.0593e-06
-5.13516e-05
-0.000103729
-0.000156514
-0.000207624
-0.000254705
-0.000295357
-0.000327428
-0.000349326
-0.000360278
-0.000360455
-0.000350924
-0.000333428
-0.000310076
-0.000283014
-0.000254183
-0.000225168
-0.000197157
-0.000170959
-0.000147062
-0.000125695
-0.000106899
-9.05837e-05
-7.65749e-05
-6.46535e-05
-5.4582e-05
-4.61226e-05
-3.90495e-05
-3.31553e-05
-2.82547e-05
-2.41852e-05
-2.08065e-05
-1.7999e-05
-1.56617e-05
-1.371e-05
-1.20737e-05
-1.06945e-05
-9.52479e-06
-8.52528e-06
-7.66405e-06
-6.91506e-06
-6.25718e-06
-5.67325e-06
-5.14937e-06
-4.67436e-06
-4.23918e-06
-3.83659e-06
-3.46076e-06
-3.10698e-06
-2.77142e-06
-2.45097e-06
-2.14309e-06
-1.84566e-06
-1.55692e-06
-1.27537e-06
-9.99634e-07
-7.28564e-07
-4.60019e-07
-2.06137e-07
0.000329579
0.000329242
0.000328385
0.000327007
0.000325081
0.000322523
0.000319218
0.000315022
0.000309761
0.000303225
0.00029516
0.000285271
0.000273215
0.000258605
0.00024102
0.000220008
0.000195117
0.000165926
0.00013209
9.34108e-05
4.99141e-05
1.94283e-06
-4.97507e-05
-0.00010393
-0.000158841
-0.000212256
-0.000261608
-0.000304244
-0.000337759
-0.000360365
-0.000371197
-0.00037047
-0.000359416
-0.000340023
-0.000314655
-0.000285679
-0.000255183
-0.000224829
-0.000195822
-0.000168948
-0.000144648
-0.000123098
-0.000104284
-8.8066e-05
-7.42298e-05
-6.25236e-05
-5.26857e-05
-4.44613e-05
-3.76132e-05
-3.19271e-05
-2.72142e-05
-2.33104e-05
-2.0076e-05
-1.73923e-05
-1.51603e-05
-1.32973e-05
-1.17351e-05
-1.04175e-05
-9.29871e-06
-8.34108e-06
-7.51417e-06
-6.79321e-06
-6.15814e-06
-5.59273e-06
-5.08386e-06
-4.62097e-06
-4.19559e-06
-3.80093e-06
-3.43152e-06
-3.08297e-06
-2.75169e-06
-2.43478e-06
-2.12986e-06
-1.83498e-06
-1.5485e-06
-1.26901e-06
-9.95217e-07
-7.26021e-07
-4.59249e-07
-2.06728e-07
0.000330279
0.000329965
0.000329165
0.000327877
0.000326076
0.000323678
0.000320572
0.000316618
0.000311645
0.000305443
0.000297761
0.000288297
0.000276702
0.000262576
0.000245471
0.000224905
0.00020038
0.000171414
0.000137593
9.86376e-05
5.44933e-05
5.43478e-06
-4.78244e-05
-0.000104036
-0.000161365
-0.000217418
-0.000269385
-0.000314315
-0.000349503
-0.000372926
-0.000383612
-0.000381826
-0.000369
-0.00034741
-0.000319726
-0.000288568
-0.000256192
-0.00022434
-0.00019423
-0.000166617
-0.000141886
-0.00012015
-0.000101331
-8.5236e-05
-7.16027e-05
-6.01441e-05
-5.05719e-05
-4.26128e-05
-3.60173e-05
-3.05641e-05
-2.60603e-05
-2.2341e-05
-1.92666e-05
-1.67202e-05
-1.46045e-05
-1.28395e-05
-1.1359e-05
-1.01093e-05
-9.04648e-06
-8.13483e-06
-7.34553e-06
-6.65524e-06
-6.04511e-06
-5.49989e-06
-5.00733e-06
-4.5576e-06
-4.14282e-06
-3.75672e-06
-3.39423e-06
-3.0513e-06
-2.72462e-06
-2.4115e-06
-2.10977e-06
-1.81763e-06
-1.53359e-06
-1.25634e-06
-9.84692e-07
-7.17603e-07
-4.53006e-07
-2.02878e-07
0.000331029
0.000330739
0.000330001
0.000328811
0.000327142
0.000324917
0.000322025
0.000318332
0.000313669
0.00030783
0.000300561
0.00029156
0.000280469
0.000266873
0.000250301
0.000230234
0.000206126
0.00017743
0.000143653
0.000104428
5.96089e-05
9.38936e-06
-4.55663e-05
-0.000104004
-0.000164005
-0.000222995
-0.000277892
-0.000325406
-0.000362484
-0.000386828
-0.000397339
-0.000394344
-0.000379506
-0.000355441
-0.000325167
-0.000291592
-0.000257152
-0.000223675
-0.000192382
-0.000163988
-0.000138813
-0.000116898
-9.80946e-05
-8.21477e-05
-6.87465e-05
-5.75649e-05
-4.82866e-05
-4.06187e-05
-3.42991e-05
-2.9099e-05
-2.48221e-05
-2.13023e-05
-1.84007e-05
-1.60023e-05
-1.40121e-05
-1.23525e-05
-1.09601e-05
-9.7834e-06
-8.7808e-06
-7.91867e-06
-7.16993e-06
-6.51275e-06
-5.92955e-06
-5.40618e-06
-4.9313e-06
-4.49585e-06
-4.09261e-06
-3.71583e-06
-3.36089e-06
-3.0241e-06
-2.70244e-06
-2.39348e-06
-2.09522e-06
-1.80605e-06
-1.52464e-06
-1.24979e-06
-9.80418e-07
-7.1551e-07
-4.5295e-07
-2.04282e-07
0.000331811
0.000331547
0.000330872
0.000329784
0.000328255
0.00032621
0.000323543
0.000320123
0.000315787
0.000310329
0.000303497
0.000294987
0.000284432
0.000271403
0.000255405
0.000235882
0.000212237
0.000183855
0.000150159
0.000110685
6.5185e-05
1.37612e-05
-4.29828e-05
-0.000103796
-0.000166675
-0.000228857
-0.000286959
-0.000337314
-0.000376477
-0.000401837
-0.000412146
-0.0004078
-0.000390732
-0.000363941
-0.000330843
-0.000294655
-0.000258011
-0.000222816
-0.00019029
-0.000161096
-0.00013548
-0.000113401
-9.4636e-05
-7.88639e-05
-6.5721e-05
-5.48413e-05
-4.58794e-05
-3.85224e-05
-3.24956e-05
-2.7563e-05
-2.35249e-05
-2.02145e-05
-1.7494e-05
-1.52502e-05
-1.33908e-05
-1.18409e-05
-1.054e-05
-9.43899e-06
-8.49879e-06
-7.68786e-06
-6.98097e-06
-6.35789e-06
-5.80239e-06
-5.30145e-06
-4.84469e-06
-4.42384e-06
-4.03237e-06
-3.6651e-06
-3.31787e-06
-2.98734e-06
-2.67082e-06
-2.3661e-06
-2.07142e-06
-1.78535e-06
-1.5067e-06
-1.23441e-06
-9.67498e-07
-7.05019e-07
-4.44996e-07
-1.9922e-07
0.000332607
0.000332368
0.000331759
0.000330775
0.000329388
0.000327526
0.000325089
0.00032195
0.000317947
0.000312881
0.0003065
0.000298497
0.000288498
0.000276062
0.000260667
0.000241724
0.00021858
0.000190553
0.000156977
0.000117286
7.11209e-05
1.84822e-05
-4.00986e-05
-0.000103383
-0.000169289
-0.000234856
-0.000296385
-0.000349795
-0.000391209
-0.000417664
-0.000427744
-0.000421925
-0.000402438
-0.000372716
-0.000336607
-0.000297664
-0.000258722
-0.000221758
-0.000187982
-0.000157992
-0.000131951
-0.000109732
-9.10308e-05
-7.54582e-05
-6.25963e-05
-5.20381e-05
-4.34089e-05
-3.63765e-05
-3.06537e-05
-2.59977e-05
-2.22057e-05
-1.91106e-05
-1.65758e-05
-1.44904e-05
-1.2765e-05
-1.13274e-05
-1.012e-05
-9.0965e-06
-8.22015e-06
-7.46164e-06
-6.79764e-06
-6.20954e-06
-5.68246e-06
-5.20457e-06
-4.76642e-06
-4.3606e-06
-3.98125e-06
-3.62375e-06
-3.28443e-06
-2.96032e-06
-2.64903e-06
-2.34862e-06
-2.05752e-06
-1.77452e-06
-1.49857e-06
-1.22876e-06
-9.64191e-07
-7.03961e-07
-4.46004e-07
-2.01578e-07
0.000333397
0.000333185
0.000332641
0.000331759
0.000330514
0.000328835
0.000326627
0.000323767
0.000320099
0.000315426
0.000309497
0.000302005
0.000292571
0.000280738
0.000265963
0.000247621
0.000225007
0.000197369
0.000163953
0.000124084
7.72897e-05
2.34587e-05
-3.69604e-05
-0.000102752
-0.000171763
-0.000240837
-0.000305942
-0.000362562
-0.000406351
-0.00043396
-0.000443791
-0.000436399
-0.000414352
-0.00038155
-0.000342306
-0.000300529
-0.00025925
-0.000220513
-0.0001855
-0.00015474
-0.000128305
-0.000105974
-8.73623e-05
-7.20099e-05
-5.94447e-05
-4.92195e-05
-4.0931e-05
-3.42282e-05
-2.88123e-05
-2.44342e-05
-2.08885e-05
-1.80082e-05
-1.56582e-05
-1.37302e-05
-1.21374e-05
-1.08108e-05
-9.69571e-06
-8.74853e-06
-7.93496e-06
-7.22791e-06
-6.60594e-06
-6.05207e-06
-5.55279e-06
-5.09739e-06
-4.67742e-06
-4.28625e-06
-3.91873e-06
-3.5708e-06
-3.23926e-06
-2.9215e-06
-2.61542e-06
-2.31932e-06
-2.03189e-06
-1.75206e-06
-1.47898e-06
-1.21185e-06
-9.49861e-07
-6.92202e-07
-4.36959e-07
-1.95708e-07
0.000334164
0.000333976
0.000333495
0.000332714
0.000331605
0.000330105
0.000328119
0.000325532
0.00032219
0.0003179
0.000312415
0.000305426
0.000296549
0.000285314
0.00027116
0.000253424
0.000231355
0.00020413
0.000170908
0.000130908
8.35377e-05
2.85692e-05
-3.36402e-05
-0.000101909
-0.000174023
-0.000246634
-0.000315378
-0.000375286
-0.000421519
-0.000450317
-0.000459881
-0.000450858
-0.000426168
-0.000390211
-0.00034779
-0.000303171
-0.000259578
-0.000219109
-0.000182909
-0.000151426
-0.000124636
-0.000102227
-8.37274e-05
-6.86107e-05
-5.63511e-05
-4.64625e-05
-3.85149e-05
-3.21394e-05
-2.70266e-05
-2.29218e-05
-1.96178e-05
-1.69477e-05
-1.47783e-05
-1.30038e-05
-1.15404e-05
-1.0322e-05
-9.29682e-06
-8.42398e-06
-7.67159e-06
-7.01471e-06
-6.43373e-06
-5.91326e-06
-5.44108e-06
-5.00761e-06
-4.60531e-06
-4.22838e-06
-3.87232e-06
-3.53362e-06
-3.20951e-06
-2.89776e-06
-2.59654e-06
-2.30441e-06
-2.02026e-06
-1.74322e-06
-1.47259e-06
-1.20771e-06
-9.47864e-07
-6.92256e-07
-4.38867e-07
-1.98704e-07
0.000334889
0.000334724
0.000334303
0.000333616
0.000332637
0.000331304
0.000329529
0.0003272
0.000324167
0.000320242
0.00031518
0.000308672
0.000300329
0.000289672
0.00027612
0.00025898
0.000237452
0.000210652
0.000177652
0.000137567
8.96869e-05
3.36659e-05
-3.02364e-05
-0.000100882
-0.000176007
-0.000252084
-0.000324424
-0.000387603
-0.000436281
-0.00046627
-0.000475561
-0.000464893
-0.000437553
-0.000398459
-0.000352908
-0.000305523
-0.000259706
-0.000217594
-0.000180287
-0.000148145
-0.000121049
-9.85922e-05
-8.02233e-05
-6.53486e-05
-5.33927e-05
-4.38334e-05
-3.62156e-05
-3.01544e-05
-2.53311e-05
-2.14863e-05
-1.84112e-05
-1.59396e-05
-1.39403e-05
-1.231e-05
-1.09679e-05
-9.85084e-06
-8.90965e-06
-8.10616e-06
-7.41077e-06
-6.80056e-06
-6.25772e-06
-5.76828e-06
-5.32132e-06
-4.90825e-06
-4.52244e-06
-4.15883e-06
-3.81355e-06
-3.48362e-06
-3.16666e-06
-2.86075e-06
-2.56436e-06
-2.27626e-06
-1.99553e-06
-1.72149e-06
-1.45359e-06
-1.19128e-06
-9.33937e-07
-6.80826e-07
-4.30075e-07
-1.93005e-07
0.000335554
0.000335411
0.000335044
0.000334444
0.000333584
0.000332405
0.000330823
0.00032873
0.000325982
0.000322393
0.000317722
0.000311658
0.000303812
0.000293695
0.000280708
0.000264132
0.000243126
0.000216744
0.000183981
0.000143854
9.55401e-05
3.85777e-05
-2.68719e-05
-9.97214e-05
-0.00017767
-0.00025703
-0.000332803
-0.000399127
-0.000450167
-0.000481309
-0.000490332
-0.000478064
-0.00044816
-0.000406052
-0.000357524
-0.000307536
-0.000259654
-0.000216038
-0.000177733
-0.000145013
-0.000117663
-9.51878e-05
-7.69604e-05
-6.23257e-05
-5.06624e-05
-4.14154e-05
-3.41077e-05
-2.83402e-05
-2.37861e-05
-2.01822e-05
-1.73188e-05
-1.50305e-05
-1.31879e-05
-1.16905e-05
-1.046e-05
-9.43604e-06
-8.57208e-06
-7.83231e-06
-7.18929e-06
-6.62195e-06
-6.11409e-06
-5.65309e-06
-5.22915e-06
-4.83465e-06
-4.46377e-06
-4.11214e-06
-3.77645e-06
-3.45421e-06
-3.14341e-06
-2.84245e-06
-2.55e-06
-2.26507e-06
-1.98692e-06
-1.71505e-06
-1.44904e-06
-1.18848e-06
-9.32789e-07
-6.81273e-07
-4.31955e-07
-1.95684e-07
0.000336145
0.000336021
0.000335702
0.000335178
0.000334422
0.000333379
0.000331968
0.000330084
0.000327588
0.000324297
0.000319972
0.000314305
0.000306903
0.00029727
0.000284794
0.000268731
0.000248204
0.000222215
0.00018969
0.000149556
0.000100889
4.31186e-05
-2.36891e-05
-9.84998e-05
-0.000178988
-0.000261328
-0.00034024
-0.000409461
-0.000462687
-0.0004949
-0.000503673
-0.000489916
-0.000457638
-0.000412758
-0.000361516
-0.000309182
-0.000259459
-0.00021452
-0.000175351
-0.000142143
-0.000114592
-9.21212e-05
-7.40358e-05
-5.96261e-05
-4.82308e-05
-3.92663e-05
-3.22365e-05
-2.67307e-05
-2.24155e-05
-1.90244e-05
-1.63473e-05
-1.42199e-05
-1.25148e-05
-1.11334e-05
-1.00004e-05
-9.05761e-06
-8.2609e-06
-7.57657e-06
-6.97909e-06
-6.44907e-06
-5.97169e-06
-5.53554e-06
-5.13179e-06
-4.75365e-06
-4.39602e-06
-4.05513e-06
-3.72819e-06
-3.41309e-06
-3.10816e-06
-2.81204e-06
-2.52361e-06
-2.24204e-06
-1.96678e-06
-1.69745e-06
-1.43379e-06
-1.17545e-06
-9.21936e-07
-6.72588e-07
-4.25512e-07
-1.91734e-07
0.000336648
0.00033654
0.000336261
0.000335801
0.000335133
0.000334204
0.000332936
0.000331228
0.000328944
0.000325905
0.000321873
0.000316541
0.000309516
0.000300295
0.000288256
0.000272635
0.000252525
0.000226886
0.000194582
0.000154467
0.000105528
4.7098e-05
-2.08402e-05
-9.73046e-05
-0.000179956
-0.000264853
-0.00034648
-0.00041822
-0.000473358
-0.00050651
-0.000515064
-0.000500002
-0.00046565
-0.000418363
-0.000364784
-0.00031045
-0.000259175
-0.000213134
-0.000173257
-0.000139659
-0.000111958
-8.95092e-05
-7.15575e-05
-5.73482e-05
-4.61865e-05
-3.74656e-05
-3.06739e-05
-2.53911e-05
-2.12786e-05
-1.80679e-05
-1.55484e-05
-1.35569e-05
-1.19676e-05
-1.06841e-05
-9.63311e-06
-8.75864e-06
-8.01845e-06
-7.38065e-06
-6.82133e-06
-6.32248e-06
-5.87048e-06
-5.45489e-06
-5.06772e-06
-4.70288e-06
-4.35587e-06
-4.02344e-06
-3.70322e-06
-3.39347e-06
-3.09276e-06
-2.79995e-06
-2.51411e-06
-2.23455e-06
-1.96087e-06
-1.69282e-06
-1.43026e-06
-1.17292e-06
-9.20366e-07
-6.71952e-07
-4.25748e-07
-1.92608e-07
0.000337051
0.000336955
0.000336707
0.000336297
0.000335698
0.000334859
0.000333703
0.000332134
0.000330016
0.000327174
0.000323372
0.000318305
0.000311577
0.000302683
0.00029099
0.000275723
0.000255949
0.000230595
0.00019848
0.000158397
0.000109263
5.03352e-05
-1.84749e-05
-9.62295e-05
-0.000180583
-0.000267506
-0.000351298
-0.000425058
-0.000481734
-0.000515646
-0.000524024
-0.00050791
-0.000471891
-0.000422681
-0.000367249
-0.000311341
-0.000258858
-0.000211968
-0.000171554
-0.000137666
-0.000109863
-8.74415e-05
-6.96027e-05
-5.55559e-05
-4.45806e-05
-3.60522e-05
-2.94475e-05
-2.43391e-05
-2.03845e-05
-1.73138e-05
-1.49165e-05
-1.303e-05
-1.15301e-05
-1.03222e-05
-9.33437e-06
-8.51252e-06
-7.8159e-06
-7.21404e-06
-6.68426e-06
-6.20965e-06
-5.77749e-06
-5.37812e-06
-5.00415e-06
-4.65007e-06
-4.31181e-06
-3.98652e-06
-3.67218e-06
-3.36728e-06
-3.07061e-06
-2.78116e-06
-2.49813e-06
-2.22096e-06
-1.94934e-06
-1.68313e-06
-1.42227e-06
-1.16656e-06
-9.15592e-07
-6.68733e-07
-4.2403e-07
-1.92212e-07
0.000337344
0.000337257
0.000337031
0.000336656
0.000336106
0.000335328
0.000334251
0.000332778
0.000330776
0.000328071
0.00032443
0.000319548
0.000313027
0.000304362
0.000292913
0.000277895
0.00025836
0.000233212
0.000201237
0.000161189
0.000111933
5.26749e-05
-1.67251e-05
-9.53622e-05
-0.000180888
-0.000269216
-0.000354515
-0.000429687
-0.000487443
-0.000521889
-0.000530145
-0.000513296
-0.000476113
-0.000425567
-0.000368855
-0.000311871
-0.000258568
-0.000211108
-0.000170338
-0.000136265
-0.000108402
-8.60088e-05
-6.82546e-05
-5.4325e-05
-4.3482e-05
-3.50889e-05
-2.86149e-05
-2.3628e-05
-1.97832e-05
-1.68096e-05
-1.44968e-05
-1.2683e-05
-1.12449e-05
-1.0089e-05
-9.14472e-06
-8.35901e-06
-7.69219e-06
-7.11479e-06
-6.605e-06
-6.14663e-06
-5.72763e-06
-5.33882e-06
-4.9733e-06
-4.62587e-06
-4.29285e-06
-3.97165e-06
-3.66046e-06
-3.35798e-06
-3.06314e-06
-2.77504e-06
-2.49296e-06
-2.21643e-06
-1.94522e-06
-1.67928e-06
-1.41858e-06
-1.16301e-06
-9.12171e-07
-6.6546e-07
-4.21008e-07
-1.89848e-07
0.000337522
0.00033744
0.000337226
0.00033687
0.000336345
0.000335601
0.000334566
0.000333144
0.000331205
0.000328574
0.000325019
0.000320235
0.000313826
0.000305283
0.000293966
0.000279082
0.000259677
0.000234642
0.000202748
0.000162728
0.00011342
5.40022e-05
-1.56908e-05
-9.47722e-05
-0.000180893
-0.000269937
-0.000356008
-0.000431904
-0.000490215
-0.000524937
-0.000533132
-0.00051591
-0.000478138
-0.000426918
-0.000369568
-0.000312051
-0.000258348
-0.000210613
-0.000169674
-0.000135517
-0.000107631
-8.52583e-05
-6.75517e-05
-5.36848e-05
-4.29111e-05
-3.45883e-05
-2.81816e-05
-2.32569e-05
-1.94682e-05
-1.6544e-05
-1.42742e-05
-1.24974e-05
-1.10907e-05
-9.96125e-06
-9.03917e-06
-8.27198e-06
-7.62055e-06
-7.0559e-06
-6.55665e-06
-6.10702e-06
-5.69524e-06
-5.31241e-06
-4.95181e-06
-4.60847e-06
-4.27884e-06
-3.96047e-06
-3.65169e-06
-3.35126e-06
-3.05819e-06
-2.77161e-06
-2.49085e-06
-2.21548e-06
-1.9453e-06
-1.68028e-06
-1.42046e-06
-1.16571e-06
-9.15653e-07
-6.69654e-07
-4.25682e-07
-1.94245e-07
0.000337581
0.0003375
0.000337287
0.000336934
0.000336412
0.000335672
0.000334642
0.000333226
0.000331294
0.00032867
0.000325124
0.00032035
0.000313951
0.000305421
0.000294116
0.000279246
0.000259856
0.000234837
0.000202959
0.000162953
0.00011366
5.42552e-05
-1.54265e-05
-9.44983e-05
-0.000180611
-0.000269649
-0.000355714
-0.000431605
-0.000489912
-0.000524634
-0.000532833
-0.000515624
-0.000477876
-0.000426689
-0.000369375
-0.000311895
-0.000258225
-0.000210518
-0.000169603
-0.000135463
-0.000107592
-8.52301e-05
-6.75318e-05
-5.36713e-05
-4.29025e-05
-3.45834e-05
-2.81797e-05
-2.32572e-05
-1.94703e-05
-1.65476e-05
-1.42788e-05
-1.25028e-05
-1.10967e-05
-9.96765e-06
-9.0458e-06
-8.27869e-06
-7.62722e-06
-7.06242e-06
-6.56293e-06
-6.11298e-06
-5.7008e-06
-5.31749e-06
-4.95635e-06
-4.61239e-06
-4.2821e-06
-3.96302e-06
-3.65351e-06
-3.35234e-06
-3.0585e-06
-2.77116e-06
-2.48963e-06
-2.21348e-06
-1.94252e-06
-1.67674e-06
-1.41615e-06
-1.16065e-06
-9.09867e-07
-6.63199e-07
-4.1884e-07
-1.88147e-07
0.000337522
0.000337436
0.000337215
0.000336847
0.000336306
0.00033554
0.000334478
0.000333022
0.00033104
0.000328359
0.000324744
0.000319891
0.000313403
0.000304774
0.000293364
0.000278388
0.000258897
0.000233794
0.000201865
0.000161863
0.00011265
5.34307e-05
-1.59352e-05
-9.45438e-05
-0.000180046
-0.000268355
-0.000353638
-0.000428794
-0.000486539
-0.000520984
-0.000529254
-0.000512446
-0.000475332
-0.00042488
-0.000368278
-0.000311402
-0.000258198
-0.000210821
-0.000170118
-0.000136097
-0.000108275
-8.59134e-05
-6.81828e-05
-5.42709e-05
-4.34412e-05
-3.50582e-05
-2.85918e-05
-2.36106e-05
-1.97703e-05
-1.68003e-05
-1.44902e-05
-1.26787e-05
-1.12424e-05
-1.00879e-05
-9.14489e-06
-8.36023e-06
-7.69435e-06
-7.11779e-06
-6.60877e-06
-6.15115e-06
-5.73283e-06
-5.34465e-06
-4.97966e-06
-4.6327e-06
-4.30007e-06
-3.97923e-06
-3.66838e-06
-3.36622e-06
-3.07167e-06
-2.78384e-06
-2.50199e-06
-2.22565e-06
-1.95458e-06
-1.68873e-06
-1.42809e-06
-1.17253e-06
-9.21626e-07
-6.74739e-07
-4.29767e-07
-1.97167e-07
0.000337345
0.000337253
0.000337013
0.000336614
0.000336031
0.000335211
0.00033408
0.000332538
0.000330454
0.00032765
0.000323892
0.000318874
0.000312199
0.000303365
0.000291737
0.000276538
0.000256837
0.000231558
0.000199519
0.000159511
0.000110447
5.15842e-05
-1.71695e-05
-9.48769e-05
-0.000179191
-0.000266084
-0.000349849
-0.000423586
-0.000480246
-0.000514157
-0.000522561
-0.000506515
-0.00047061
-0.000421553
-0.000366298
-0.000310567
-0.000258245
-0.000211491
-0.000171188
-0.000137389
-0.000109654
-8.7286e-05
-6.94876e-05
-5.54716e-05
-4.45198e-05
-3.60093e-05
-2.94183e-05
-2.43205e-05
-2.03742e-05
-1.731e-05
-1.49177e-05
-1.30353e-05
-1.15385e-05
-1.03329e-05
-9.34696e-06
-8.52646e-06
-7.8308e-06
-7.22959e-06
-6.70021e-06
-6.22579e-06
-5.79361e-06
-5.394e-06
-5.01958e-06
-4.66483e-06
-4.32573e-06
-3.99949e-06
-3.68411e-06
-3.37811e-06
-3.08029e-06
-2.78965e-06
-2.50537e-06
-2.22689e-06
-1.95392e-06
-1.68633e-06
-1.42405e-06
-1.1669e-06
-9.14471e-07
-6.66146e-07
-4.20165e-07
-1.88256e-07
0.000337058
0.000336954
0.000336685
0.000336241
0.000335595
0.000334693
0.000333459
0.000331791
0.000329553
0.000326567
0.000322595
0.000317331
0.00031038
0.000301242
0.000289291
0.000273765
0.000253755
0.000228219
0.00019602
0.000156008
0.000107165
4.88245e-05
-1.90359e-05
-9.5435e-05
-0.000178033
-0.000262887
-0.000344479
-0.000416191
-0.00047131
-0.000504466
-0.00051306
-0.000498092
-0.000463894
-0.000416815
-0.000363473
-0.000309377
-0.00025832
-0.000212464
-0.000172739
-0.000139262
-0.000111657
-8.92817e-05
-7.13862e-05
-5.72197e-05
-4.60905e-05
-3.73944e-05
-3.06217e-05
-2.53535e-05
-2.12524e-05
-1.80505e-05
-1.55381e-05
-1.35521e-05
-1.19671e-05
-1.06872e-05
-9.63899e-06
-8.7668e-06
-8.02846e-06
-7.39221e-06
-6.83419e-06
-6.33646e-06
-5.88539e-06
-5.47051e-06
-5.08383e-06
-4.71927e-06
-4.37237e-06
-4.03992e-06
-3.71961e-06
-3.40971e-06
-3.1088e-06
-2.81572e-06
-2.52953e-06
-2.24954e-06
-1.97534e-06
-1.70671e-06
-1.44348e-06
-1.18541e-06
-9.32032e-07
-6.82649e-07
-4.35143e-07
-2.00135e-07
0.000336668
0.00033655
0.000336243
0.00033574
0.000335012
0.000334003
0.000332634
0.000330801
0.000328363
0.00032514
0.000320891
0.000315309
0.000308001
0.000298472
0.000286108
0.000270164
0.000249763
0.000223905
0.00019151
0.000151505
0.00010296
4.53015e-05
-2.14083e-05
-9.61367e-05
-0.000176559
-0.000258845
-0.000337715
-0.000406904
-0.000460113
-0.000492337
-0.000501166
-0.00048753
-0.000455444
-0.000410819
-0.000359866
-0.000307824
-0.00025837
-0.000213661
-0.000174683
-0.000141629
-0.0001142
-9.18248e-05
-7.38129e-05
-5.94597e-05
-4.81077e-05
-3.91766e-05
-3.21727e-05
-2.66869e-05
-2.23873e-05
-1.90086e-05
-1.63412e-05
-1.42215e-05
-1.25223e-05
-1.11457e-05
-1.00164e-05
-9.07647e-06
-8.28193e-06
-7.59923e-06
-7.00295e-06
-6.47374e-06
-5.99684e-06
-5.5608e-06
-5.15679e-06
-4.77806e-06
-4.41956e-06
-4.07757e-06
-3.74939e-06
-3.43295e-06
-3.12659e-06
-2.82893e-06
-2.53887e-06
-2.25556e-06
-1.97847e-06
-1.70723e-06
-1.4416e-06
-1.18123e-06
-9.25633e-07
-6.74161e-07
-4.25063e-07
-1.9041e-07
0.000336187
0.00033605
0.000335699
0.000335123
0.000334296
0.000333159
0.000331628
0.000329595
0.000326918
0.00032341
0.00031883
0.000312868
0.000305135
0.000295142
0.000282289
0.000265855
0.000244999
0.000218772
0.000186164
0.000146189
9.80207e-05
4.11911e-05
-2.41421e-05
-9.68937e-05
-0.000174763
-0.000254062
-0.000329787
-0.000396079
-0.000447107
-0.000478271
-0.000487368
-0.000475246
-0.000445568
-0.000403753
-0.000355557
-0.000305906
-0.000258336
-0.00021499
-0.000176911
-0.000144375
-0.000117172
-9.48125e-05
-7.66749e-05
-6.21094e-05
-5.04996e-05
-4.12939e-05
-3.40181e-05
-2.82754e-05
-2.37407e-05
-2.0152e-05
-1.73005e-05
-1.50216e-05
-1.31865e-05
-1.1695e-05
-1.04692e-05
-9.44895e-06
-8.58796e-06
-7.85057e-06
-7.20945e-06
-6.64365e-06
-6.13697e-06
-5.6768e-06
-5.25333e-06
-4.85896e-06
-4.48792e-06
-4.13591e-06
-3.79971e-06
-3.47685e-06
-3.16535e-06
-2.86358e-06
-2.57023e-06
-2.28427e-06
-2.00498e-06
-1.73186e-06
-1.46452e-06
-1.20254e-06
-9.45336e-07
-6.92183e-07
-4.40967e-07
-2.02684e-07
0.000335626
0.000335469
0.000335066
0.000334408
0.000333467
0.000332183
0.000330467
0.000328208
0.000325257
0.000321426
0.000316469
0.000310079
0.000301866
0.000291352
0.000277953
0.000260977
0.000239621
0.000212997
0.000180175
0.000140264
9.25493e-05
3.66798e-05
-2.70892e-05
-9.7623e-05
-0.000172658
-0.000248667
-0.000320957
-0.000384106
-0.000432779
-0.000462803
-0.000472189
-0.000461691
-0.000434605
-0.000395835
-0.000350651
-0.000303638
-0.00025817
-0.000216363
-0.000179314
-0.000147385
-0.00012046
-9.81385e-05
-7.98765e-05
-6.50852e-05
-5.31943e-05
-4.36856e-05
-3.61073e-05
-3.00769e-05
-2.52779e-05
-2.14522e-05
-1.83922e-05
-1.59326e-05
-1.39428e-05
-1.232e-05
-1.09838e-05
-9.87143e-06
-8.93386e-06
-8.13316e-06
-7.43989e-06
-6.83125e-06
-6.28946e-06
-5.80057e-06
-5.35366e-06
-4.94018e-06
-4.55358e-06
-4.18885e-06
-3.84223e-06
-3.51078e-06
-3.19217e-06
-2.88449e-06
-2.58618e-06
-2.29602e-06
-2.01309e-06
-1.73675e-06
-1.46644e-06
-1.20166e-06
-9.4176e-07
-6.86061e-07
-4.32774e-07
-1.94244e-07
0.000335002
0.000334823
0.000334362
0.000333613
0.000332548
0.000331102
0.000329184
0.000326676
0.000323426
0.000319241
0.000313875
0.000307019
0.000298288
0.000287213
0.00027323
0.000255677
0.000233798
0.00020677
0.000173745
0.000133939
8.67515e-05
3.19512e-05
-3.01105e-05
-9.82557e-05
-0.00017027
-0.000242808
-0.000311501
-0.000371383
-0.000417622
-0.000446471
-0.000456149
-0.000447318
-0.000422905
-0.000387298
-0.00034527
-0.000301051
-0.000257835
-0.0002177
-0.000181785
-0.00015054
-0.000123943
-0.000101689
-8.33125e-05
-6.82924e-05
-5.61086e-05
-4.62794e-05
-3.83783e-05
-3.20392e-05
-2.6955e-05
-2.28727e-05
-1.95864e-05
-1.69303e-05
-1.4772e-05
-1.30063e-05
-1.15498e-05
-1.0337e-05
-9.31615e-06
-8.44671e-06
-7.697e-06
-7.04217e-06
-6.46273e-06
-5.94326e-06
-5.47161e-06
-5.03818e-06
-4.63553e-06
-4.25793e-06
-3.90096e-06
-3.56121e-06
-3.23592e-06
-2.92287e-06
-2.62022e-06
-2.32653e-06
-2.04068e-06
-1.76182e-06
-1.48927e-06
-1.22238e-06
-9.60451e-07
-7.02692e-07
-4.47015e-07
-2.04899e-07
0.000334331
0.000334127
0.000333606
0.000332761
0.000331563
0.000329945
0.000327811
0.000325039
0.000321473
0.000316916
0.000311118
0.000303772
0.000294498
0.00028284
0.000268253
0.00025011
0.000227704
0.00020028
0.000167078
0.000127418
8.0823e-05
2.71742e-05
-3.30849e-05
-9.87427e-05
-0.000167648
-0.000236643
-0.000301699
-0.000358299
-0.000402106
-0.000429783
-0.000439746
-0.000432568
-0.000410817
-0.000378383
-0.000339551
-0.000298194
-0.000257313
-0.000218934
-0.000184231
-0.000153731
-0.000127509
-0.000105352
-8.68795e-05
-7.16375e-05
-5.91597e-05
-4.90034e-05
-4.07694e-05
-3.41094e-05
-2.87274e-05
-2.43761e-05
-2.08516e-05
-1.79882e-05
-1.56516e-05
-1.37342e-05
-1.21499e-05
-1.083e-05
-9.72016e-06
-8.77707e-06
-7.96666e-06
-7.26198e-06
-6.6417e-06
-6.08887e-06
-5.59001e-06
-5.13445e-06
-4.7138e-06
-4.32154e-06
-3.95262e-06