/*--------------------------------*- C++ -*----------------------------------*\
| =========                 |                                                 |
| \\      /  F ield         | OpenFOAM: The Open Source CFD Toolbox           |
|  \\    /   O peration     | Version:  2512                                  |
|   \\  /    A nd           | Website:  www.openfoam.com                      |
|    \\/     M anipulation  |                                                 |
\*---------------------------------------------------------------------------*/
FoamFile
{
    version     2.0;
    format      ascii;
    arch        "LSB;label=32;scalar=64";
    class       volScalarField;
    location    "100";
    object      p;
}
// * * * * * * * * * * * * * * * * * * * * * * * * * * * * * * * * * * * * * //

dimensions      [0 2 -2 0 0 0 0];

internalField   nonuniform List<scalar> 
229904
(
6.79809e-06
6.79215e-06
6.77656e-06
6.75146e-06
6.71635e-06
6.66967e-06
6.60937e-06
6.53301e-06
6.43771e-06
6.32005e-06
6.17611e-06
6.00141e-06
5.79095e-06
5.53932e-06
5.24087e-06
4.88993e-06
4.48128e-06
4.01064e-06
3.47533e-06
2.87501e-06
2.21242e-06
1.49444e-06
7.32735e-07
-5.57958e-08
-8.49196e-07
-1.62128e-06
-2.34346e-06
-2.98689e-06
-3.52575e-06
-3.9398e-06
-4.21714e-06
-4.35554e-06
-4.3625e-06
-4.25376e-06
-4.05067e-06
-3.77727e-06
-3.4575e-06
-3.11313e-06
-2.76242e-06
-2.41966e-06
-2.09517e-06
-1.79569e-06
-1.52499e-06
-1.28451e-06
-1.07396e-06
-8.91895e-07
-7.36103e-07
-6.03991e-07
-4.92817e-07
-3.99865e-07
-3.22572e-07
-2.58592e-07
-2.05831e-07
-1.62448e-07
-1.2685e-07
-9.76723e-08
-7.37629e-08
-5.41631e-08
-3.80935e-08
-2.49256e-08
-1.41648e-08
-5.41827e-09
1.61961e-09
7.19263e-09
1.14888e-08
1.46592e-08
1.68195e-08
1.80688e-08
1.84912e-08
1.8176e-08
1.72157e-08
1.57217e-08
1.38157e-08
1.16371e-08
9.3258e-09
7.01777e-09
4.82537e-09
2.82546e-09
1.17925e-09
-2.49695e-10
6.80002e-06
6.79411e-06
6.77868e-06
6.75383e-06
6.71904e-06
6.6728e-06
6.61304e-06
6.53734e-06
6.44281e-06
6.32606e-06
6.18314e-06
6.00957e-06
5.80032e-06
5.54996e-06
5.25275e-06
4.90298e-06
4.49527e-06
4.0252e-06
3.48993e-06
2.88891e-06
2.22474e-06
1.50411e-06
7.38647e-07
-5.47352e-08
-8.53875e-07
-1.63226e-06
-2.36072e-06
-3.00984e-06
-3.55306e-06
-3.96968e-06
-4.24749e-06
-4.38428e-06
-4.38789e-06
-4.27456e-06
-4.06631e-06
-3.78773e-06
-3.46323e-06
-3.11485e-06
-2.76099e-06
-2.41593e-06
-2.0899e-06
-1.78953e-06
-1.51846e-06
-1.27799e-06
-1.06772e-06
-8.86097e-07
-7.3084e-07
-5.99303e-07
-4.88702e-07
-3.96296e-07
-3.19506e-07
-2.5598e-07
-2.0362e-07
-1.6059e-07
-1.253e-07
-9.63881e-08
-7.27061e-08
-5.33e-08
-3.73933e-08
-2.43639e-08
-1.37204e-08
-5.07497e-09
1.87694e-09
7.37661e-09
1.16134e-08
1.47368e-08
1.6864e-08
1.80914e-08
1.85037e-08
1.81859e-08
1.72303e-08
1.57442e-08
1.38489e-08
1.16804e-08
9.3786e-09
7.0772e-09
4.88825e-09
2.88526e-09
1.22281e-09
-2.9961e-10
6.8038e-06
6.798e-06
6.78288e-06
6.7585e-06
6.72437e-06
6.67897e-06
6.62028e-06
6.54587e-06
6.45287e-06
6.33789e-06
6.19698e-06
6.02563e-06
5.81879e-06
5.57093e-06
5.27622e-06
4.92874e-06
4.52293e-06
4.05405e-06
3.5189e-06
2.91657e-06
2.24929e-06
1.52348e-06
7.50603e-07
-5.23624e-08
-8.62898e-07
-1.65378e-06
-2.39476e-06
-3.05516e-06
-3.60712e-06
-4.02887e-06
-4.30764e-06
-4.44125e-06
-4.43819e-06
-4.31576e-06
-4.09724e-06
-3.80839e-06
-3.47451e-06
-3.11819e-06
-2.75809e-06
-2.40847e-06
-2.07943e-06
-1.77733e-06
-1.50554e-06
-1.26511e-06
-1.0554e-06
-8.74657e-07
-7.20471e-07
-5.90077e-07
-4.80614e-07
-3.89291e-07
-3.13496e-07
-2.50863e-07
-1.99294e-07
-1.56956e-07
-1.22266e-07
-9.38706e-08
-7.06277e-08
-5.15918e-08
-3.59966e-08
-2.32298e-08
-1.28101e-08
-4.35727e-09
2.4281e-09
7.78493e-09
1.19018e-08
1.49283e-08
1.69809e-08
1.81548e-08
1.85321e-08
1.8195e-08
1.72323e-08
1.57481e-08
1.38605e-08
1.17029e-08
9.4127e-09
7.12152e-09
4.9398e-09
2.93852e-09
1.26069e-09
-3.05315e-10
6.80938e-06
6.80375e-06
6.78907e-06
6.7654e-06
6.73224e-06
6.68809e-06
6.63097e-06
6.55845e-06
6.4677e-06
6.35534e-06
6.2174e-06
6.04935e-06
5.84608e-06
5.60196e-06
5.31097e-06
4.96695e-06
4.56399e-06
4.09693e-06
3.56204e-06
2.95784e-06
2.28604e-06
1.55261e-06
7.68742e-07
-4.84809e-08
-8.76015e-07
-1.68556e-06
-2.4453e-06
-3.12262e-06
-3.6877e-06
-4.11717e-06
-4.39735e-06
-4.52615e-06
-4.51301e-06
-4.3769e-06
-4.14296e-06
-3.83875e-06
-3.49089e-06
-3.1228e-06
-2.75347e-06
-2.39716e-06
-2.0637e-06
-1.75911e-06
-1.48633e-06
-1.246e-06
-1.03715e-06
-8.57758e-07
-7.05179e-07
-5.76493e-07
-4.68723e-07
-3.79001e-07
-3.04674e-07
-2.43357e-07
-1.9295e-07
-1.51626e-07
-1.17813e-07
-9.01687e-08
-6.75625e-08
-4.90623e-08
-3.39169e-08
-2.15304e-08
-1.14359e-08
-3.26498e-09
3.27469e-09
8.41863e-09
1.23547e-08
1.52321e-08
1.7167e-08
1.82526e-08
1.85681e-08
1.81916e-08
1.72081e-08
1.57175e-08
1.38347e-08
1.1689e-08
9.41455e-09
7.14004e-09
4.97341e-09
2.98261e-09
1.29816e-09
-2.9406e-10
6.81661e-06
6.8112e-06
6.7971e-06
6.77435e-06
6.74244e-06
6.69993e-06
6.64483e-06
6.57478e-06
6.48696e-06
6.378e-06
6.24394e-06
6.08021e-06
5.88163e-06
5.64241e-06
5.35632e-06
5.01689e-06
4.61774e-06
4.15317e-06
3.61876e-06
3.01227e-06
2.33469e-06
1.59138e-06
7.93179e-07
-4.276e-08
-8.92699e-07
-1.72693e-06
-2.51155e-06
-3.21137e-06
-3.79391e-06
-4.23363e-06
-4.51566e-06
-4.63796e-06
-4.61132e-06
-4.45693e-06
-4.20252e-06
-3.87799e-06
-3.51174e-06
-3.12823e-06
-2.74688e-06
-2.3819e-06
-2.04279e-06
-1.73504e-06
-1.46105e-06
-1.22095e-06
-1.0133e-06
-8.35711e-07
-6.85265e-07
-5.58827e-07
-4.53276e-07
-3.65648e-07
-2.93234e-07
-2.33627e-07
-1.84726e-07
-1.44716e-07
-1.12037e-07
-8.53611e-08
-6.35746e-08
-4.57632e-08
-3.11964e-08
-1.93e-08
-9.62639e-09
-1.82191e-09
4.39695e-09
9.2617e-09
1.29593e-08
1.56391e-08
1.74161e-08
1.83811e-08
1.86094e-08
1.81748e-08
1.71574e-08
1.56528e-08
1.37715e-08
1.16389e-08
9.3846e-09
7.13354e-09
4.99053e-09
3.01987e-09
1.34e-09
-2.66346e-10
6.82533e-06
6.82019e-06
6.80679e-06
6.78515e-06
6.75476e-06
6.71422e-06
6.66157e-06
6.59451e-06
6.51023e-06
6.4054e-06
6.27605e-06
6.11759e-06
5.92473e-06
5.69153e-06
5.41148e-06
5.07773e-06
4.68337e-06
4.222e-06
3.68837e-06
3.07933e-06
2.39493e-06
1.63974e-06
8.24119e-07
-3.4723e-08
-9.12232e-07
-1.77699e-06
-2.59248e-06
-3.32031e-06
-3.92465e-06
-4.37715e-06
-4.66141e-06
-4.77548e-06
-4.73187e-06
-4.55464e-06
-4.27478e-06
-3.92512e-06
-3.53626e-06
-3.13392e-06
-2.738e-06
-2.36261e-06
-2.01676e-06
-1.70532e-06
-1.43001e-06
-1.1903e-06
-9.84207e-07
-8.08889e-07
-6.61085e-07
-5.37415e-07
-4.3458e-07
-3.49503e-07
-2.79414e-07
-2.21881e-07
-1.74805e-07
-1.36382e-07
-1.05072e-07
-7.95643e-08
-5.87642e-08
-4.17809e-08
-2.79098e-08
-1.66031e-08
-7.43696e-09
-7.51663e-11
5.75559e-09
1.02825e-08
1.36917e-08
1.61322e-08
1.77175e-08
1.85354e-08
1.86561e-08
1.81482e-08
1.70862e-08
1.55611e-08
1.36787e-08
1.15596e-08
9.32884e-09
7.10656e-09
4.99374e-09
3.05028e-09
1.38275e-09
-2.3265e-10
6.83534e-06
6.83051e-06
6.81791e-06
6.79754e-06
6.76891e-06
6.73063e-06
6.68081e-06
6.61718e-06
6.53699e-06
6.43693e-06
6.31305e-06
6.1607e-06
5.9745e-06
5.74833e-06
5.47539e-06
5.14836e-06
4.75975e-06
4.30234e-06
3.76991e-06
3.15822e-06
2.4662e-06
1.69744e-06
8.61668e-07
-2.38914e-08
-9.33789e-07
-1.83461e-06
-2.68677e-06
-3.44799e-06
-4.07834e-06
-4.5461e-06
-4.83292e-06
-4.93699e-06
-4.87294e-06
-4.66836e-06
-4.35821e-06
-3.97887e-06
-3.56349e-06
-3.13924e-06
-2.7265e-06
-2.3392e-06
-1.98576e-06
-1.67028e-06
-1.39363e-06
-1.15455e-06
-9.50385e-07
-7.77794e-07
-6.33121e-07
-5.12701e-07
-4.13038e-07
-3.30928e-07
-2.63533e-07
-2.08397e-07
-1.63425e-07
-1.26832e-07
-9.70975e-08
-7.29314e-08
-5.32628e-08
-3.72276e-08
-2.4152e-08
-1.35198e-08
-4.93444e-09
1.92062e-09
7.30743e-09
1.14487e-08
1.45297e-08
1.66987e-08
1.80672e-08
1.87183e-08
1.87166e-08
1.81241e-08
1.70094e-08
1.54582e-08
1.35716e-08
1.14653e-08
9.25903e-09
7.06805e-09
4.98877e-09
3.07595e-09
1.42482e-09
-1.97425e-10
6.84641e-06
6.84192e-06
6.83021e-06
6.81125e-06
6.78456e-06
6.74878e-06
6.70209e-06
6.64228e-06
6.56664e-06
6.4719e-06
6.35411e-06
6.20861e-06
6.0299e-06
5.81167e-06
5.54678e-06
5.22746e-06
4.84552e-06
4.39284e-06
3.86213e-06
3.24788e-06
2.54772e-06
1.76406e-06
9.05856e-07
-9.76926e-09
-9.56412e-07
-1.89844e-06
-2.79272e-06
-3.59246e-06
-4.25294e-06
-4.73832e-06
-5.02799e-06
-5.12028e-06
-5.03237e-06
-4.79606e-06
-4.45104e-06
-4.03781e-06
-3.5924e-06
-3.14355e-06
-2.71212e-06
-2.31174e-06
-1.95009e-06
-1.63036e-06
-1.35248e-06
-1.1143e-06
-9.12458e-07
-7.43033e-07
-6.01943e-07
-4.85208e-07
-3.89119e-07
-3.10336e-07
-2.4595e-07
-1.93485e-07
-1.50855e-07
-1.16295e-07
-8.83089e-08
-6.56294e-08
-4.72116e-08
-3.2222e-08
-2.00223e-08
-1.01322e-08
-2.18567e-09
4.11228e-09
9.01186e-09
1.27314e-08
1.5455e-08
1.73299e-08
1.84645e-08
1.89359e-08
1.88017e-08
1.81164e-08
1.69422e-08
1.53593e-08
1.34639e-08
1.1367e-08
9.18343e-09
7.02296e-09
4.9771e-09
3.09512e-09
1.46173e-09
-1.64977e-10
6.85827e-06
6.85415e-06
6.84339e-06
6.82596e-06
6.80134e-06
6.76825e-06
6.72494e-06
6.66924e-06
6.59851e-06
6.50951e-06
6.39833e-06
6.26027e-06
6.08972e-06
5.88019e-06
5.6242e-06
5.31345e-06
4.93903e-06
4.49188e-06
3.96348e-06
3.34694e-06
2.63841e-06
1.83895e-06
9.56522e-07
8.06029e-09
-9.79091e-07
-1.9669e-06
-2.90829e-06
-3.75133e-06
-4.44576e-06
-4.95101e-06
-5.24374e-06
-5.32249e-06
-5.20742e-06
-4.93529e-06
-4.5512e-06
-4.10032e-06
-3.62187e-06
-3.14624e-06
-2.69468e-06
-2.28038e-06
-1.91017e-06
-1.58617e-06
-1.30725e-06
-1.0703e-06
-8.71171e-07
-7.05322e-07
-5.68214e-07
-4.55539e-07
-3.6336e-07
-2.88198e-07
-2.27075e-07
-1.77498e-07
-1.37395e-07
-1.05027e-07
-7.89225e-08
-5.78403e-08
-4.07626e-08
-2.68904e-08
-1.5625e-08
-6.52569e-09
7.40322e-10
6.44511e-09
1.0827e-08
1.41002e-08
1.64478e-08
1.80153e-08
1.89063e-08
1.9191e-08
1.89181e-08
1.81338e-08
1.68937e-08
1.52725e-08
1.33621e-08
1.12692e-08
9.10372e-09
6.9704e-09
4.95558e-09
3.10293e-09
1.48786e-09
-1.38826e-10
6.87066e-06
6.86693e-06
6.85716e-06
6.84131e-06
6.81887e-06
6.7886e-06
6.74881e-06
6.69742e-06
6.63185e-06
6.5489e-06
6.44469e-06
6.3145e-06
6.15264e-06
5.95239e-06
5.70596e-06
5.40451e-06
5.03839e-06
4.59751e-06
4.07207e-06
3.45367e-06
2.73685e-06
1.92111e-06
1.01326e-06
2.9881e-08
-1.0008e-06
-2.03821e-06
-3.03103e-06
-3.92162e-06
-4.65346e-06
-5.18058e-06
-5.47655e-06
-5.54009e-06
-5.39483e-06
-5.08317e-06
-4.65634e-06
-4.16468e-06
-3.65082e-06
-3.14679e-06
-2.67413e-06
-2.24547e-06
-1.86662e-06
-1.5385e-06
-1.25882e-06
-1.02345e-06
-8.27401e-07
-6.65485e-07
-5.3269e-07
-4.24371e-07
-3.36359e-07
-2.65035e-07
-2.07356e-07
-1.60819e-07
-1.23371e-07
-9.33033e-08
-6.91708e-08
-4.97581e-08
-3.40772e-08
-2.13662e-08
-1.10698e-08
-2.79012e-09
3.77025e-09
8.86022e-09
1.27068e-08
1.55206e-08
1.74838e-08
1.87391e-08
1.93841e-08
1.94801e-08
1.90659e-08
1.81786e-08
1.68667e-08
1.52001e-08
1.32672e-08
1.11712e-08
9.01778e-09
6.90693e-09
4.91991e-09
3.09499e-09
1.49953e-09
-1.20387e-10
6.88328e-06
6.87994e-06
6.87119e-06
6.85695e-06
6.83673e-06
6.80934e-06
6.77316e-06
6.72617e-06
6.66588e-06
6.58915e-06
6.49212e-06
6.37005e-06
6.21719e-06
6.02662e-06
5.79022e-06
5.49862e-06
5.14141e-06
4.70746e-06
4.18565e-06
3.56597e-06
2.84122e-06
2.00919e-06
1.07535e-06
5.57624e-08
-1.02055e-06
-2.11047e-06
-3.15814e-06
-4.09975e-06
-4.87191e-06
-5.42261e-06
-5.72192e-06
-5.76877e-06
-5.59069e-06
-5.23639e-06
-4.7639e-06
-4.22911e-06
-3.67822e-06
-3.14484e-06
-2.65065e-06
-2.20757e-06
-1.82025e-06
-1.48831e-06
-1.20823e-06
-9.74787e-07
-7.82137e-07
-6.24439e-07
-4.96201e-07
-3.9244e-07
-3.08758e-07
-2.41401e-07
-1.87267e-07
-1.43849e-07
-1.09122e-07
-8.14085e-08
-5.92908e-08
-4.15796e-08
-2.73173e-08
-1.57821e-08
-6.46519e-09
9.85683e-10
6.8316e-09
1.12988e-08
1.46042e-08
1.69559e-08
1.85354e-08
1.94817e-08
1.98848e-08
1.97953e-08
1.92404e-08
1.82478e-08
1.6859e-08
1.51399e-08
1.31765e-08
1.10694e-08
8.92128e-09
6.82779e-09
4.86539e-09
3.06726e-09
1.49398e-09
-1.10626e-10
6.89585e-06
6.89289e-06
6.88515e-06
6.87251e-06
6.8545e-06
6.82997e-06
6.79739e-06
6.75481e-06
6.69979e-06
6.62929e-06
6.53946e-06
6.42559e-06
6.28183e-06
6.10111e-06
5.87497e-06
5.59356e-06
5.24569e-06
4.8192e-06
4.30163e-06
3.68134e-06
2.94927e-06
2.10139e-06
1.14168e-06
8.54917e-08
-1.0375e-06
-2.18165e-06
-3.28645e-06
-4.28156e-06
-5.0962e-06
-5.67176e-06
-5.97445e-06
-6.00342e-06
-5.7905e-06
-5.3913e-06
-4.87116e-06
-4.29186e-06
-3.70319e-06
-3.14023e-06
-2.62465e-06
-2.16748e-06
-1.77211e-06
-1.43678e-06
-1.15667e-06
-9.25479e-07
-7.3648e-07
-5.83188e-07
-4.59644e-07
-3.60535e-07
-2.81242e-07
-2.17882e-07
-1.67305e-07
-1.27011e-07
-9.50034e-08
-6.96399e-08
-4.95304e-08
-3.35098e-08
-2.06517e-08
-1.02763e-08
-1.92431e-09
4.70914e-09
9.84864e-09
1.36991e-08
1.64694e-08
1.83669e-08
1.95723e-08
2.02207e-08
2.03925e-08
2.01257e-08
1.9435e-08
1.83375e-08
1.68686e-08
1.5091e-08
1.30894e-08
1.09635e-08
8.81387e-09
6.7327e-09
4.7921e-09
3.02057e-09
1.47287e-09
-1.07591e-10
6.90806e-06
6.90548e-06
6.89871e-06
6.88764e-06
6.87176e-06
6.85002e-06
6.82093e-06
6.78264e-06
6.73277e-06
6.66835e-06
6.58558e-06
6.47976e-06
6.34498e-06
6.17401e-06
5.95811e-06
5.68695e-06
5.34861e-06
4.92993e-06
4.41712e-06
3.79689e-06
3.05833e-06
2.19549e-06
1.21072e-06
1.18512e-07
-1.05098e-06
-2.2497e-06
-3.4125e-06
-4.46231e-06
-5.3206e-06
-5.92174e-06
-6.22781e-06
-6.23814e-06
-5.98917e-06
-5.54388e-06
-4.97532e-06
-4.35126e-06
-3.72505e-06
-3.13308e-06
-2.5968e-06
-2.12626e-06
-1.72346e-06
-1.38524e-06
-1.10549e-06
-8.76804e-07
-6.91605e-07
-5.42789e-07
-4.23951e-07
-3.29466e-07
-2.54504e-07
-1.95067e-07
-1.47968e-07
-1.10719e-07
-8.13618e-08
-5.82868e-08
-4.01291e-08
-2.57461e-08
-1.42425e-08
-4.98202e-09
2.44338e-09
8.2901e-09
1.27469e-08
1.59996e-08
1.82515e-08
1.97112e-08
2.05599e-08
2.09274e-08
2.08837e-08
2.04523e-08
1.96341e-08
1.84355e-08
1.68858e-08
1.50455e-08
1.29995e-08
1.08481e-08
8.6909e-09
6.61759e-09
4.69651e-09
2.95204e-09
1.43398e-09
-1.12996e-10
6.91963e-06
6.91741e-06
6.91157e-06
6.90196e-06
6.88811e-06
6.869e-06
6.84322e-06
6.80898e-06
6.76401e-06
6.70536e-06
6.62933e-06
6.53119e-06
6.40502e-06
6.24345e-06
6.03749e-06
5.77634e-06
5.44744e-06
5.03667e-06
4.52895e-06
3.90944e-06
3.16535e-06
2.28883e-06
1.28051e-06
1.53885e-07
-1.06059e-06
-2.31265e-06
-3.53263e-06
-4.63678e-06
-5.53867e-06
-6.16544e-06
-6.47482e-06
-6.46632e-06
-6.18116e-06
-5.68993e-06
-5.07356e-06
-4.40581e-06
-3.74337e-06
-3.12376e-06
-2.56805e-06
-2.08517e-06
-1.67575e-06
-1.33521e-06
-1.05616e-06
-8.30127e-07
-6.48753e-07
-5.04345e-07
-3.90088e-07
-3.00063e-07
-2.29253e-07
-1.73557e-07
-1.29759e-07
-9.53958e-08
-6.85479e-08
-4.76392e-08
-3.13258e-08
-1.84847e-08
-8.2502e-09
-2.98579e-11
6.53195e-09
1.16432e-08
1.54583e-08
1.81463e-08
1.99084e-08
2.09563e-08
2.14726e-08
2.15824e-08
2.13435e-08
2.07644e-08
1.98308e-08
1.85382e-08
1.691e-08
1.50056e-08
1.29115e-08
1.07294e-08
8.55959e-09
6.49013e-09
4.58635e-09
2.86912e-09
1.38397e-09
-1.22239e-10
6.93031e-06
6.92841e-06
6.92341e-06
6.91515e-06
6.90316e-06
6.88646e-06
6.86371e-06
6.83321e-06
6.79272e-06
6.7394e-06
6.66958e-06
6.57856e-06
6.46039e-06
6.3076e-06
6.11095e-06
5.85927e-06
5.5394e-06
5.13634e-06
4.63385e-06
4.01558e-06
3.26702e-06
2.37841e-06
1.3487e-06
1.90296e-07
-1.06623e-06
-2.36868e-06
-3.64314e-06
-4.79945e-06
-5.74344e-06
-6.39505e-06
-6.70761e-06
-6.68079e-06
-6.36057e-06
-5.82515e-06
-5.16319e-06
-4.45422e-06
-3.75801e-06
-3.11294e-06
-2.53959e-06
-2.04572e-06
-1.63059e-06
-1.28828e-06
-1.01017e-06
-7.86833e-07
-6.0916e-07
-4.6894e-07
-3.58988e-07
-2.73126e-07
-2.06164e-07
-1.53915e-07
-1.1315e-07
-8.14333e-08
-5.68871e-08
-3.79655e-08
-2.3342e-08
-1.19087e-08
-2.827e-09
4.45265e-09
1.02343e-08
1.46786e-08
1.79077e-08
2.0077e-08
2.13878e-08
2.20576e-08
2.22718e-08
2.21508e-08
2.17404e-08
2.1033e-08
1.99991e-08
1.8623e-08
1.69225e-08
1.49566e-08
1.28139e-08
1.05993e-08
8.41413e-09
6.34612e-09
4.45831e-09
2.76881e-09
1.31969e-09
-1.38755e-10
6.93983e-06
6.93822e-06
6.93397e-06
6.9269e-06
6.91655e-06
6.90197e-06
6.88191e-06
6.85471e-06
6.8182e-06
6.76961e-06
6.70531e-06
6.62063e-06
6.50961e-06
6.36469e-06
6.17644e-06
5.93336e-06
5.62177e-06
5.22591e-06
4.7285e-06
4.11185e-06
3.35985e-06
2.46101e-06
1.41266e-06
2.26099e-07
-1.06814e-06
-2.4162e-06
-3.74042e-06
-4.94471e-06
-5.92767e-06
-6.60239e-06
-6.91795e-06
-6.87411e-06
-6.52142e-06
-5.94531e-06
-5.24172e-06
-4.49549e-06
-3.76909e-06
-3.10152e-06
-2.51277e-06
-2.0095e-06
-1.58966e-06
-1.24609e-06
-9.69069e-07
-7.48305e-07
-5.74049e-07
-4.37635e-07
-3.31561e-07
-2.49422e-07
-1.85882e-07
-1.36683e-07
-9.85895e-08
-6.92019e-08
-4.6682e-08
-2.95109e-08
-1.63746e-08
-6.1762e-09
1.89973e-09
8.36271e-09
1.3468e-08
1.73316e-08
2.00464e-08
2.17567e-08
2.26663e-08
2.30003e-08
2.29481e-08
2.26263e-08
2.20695e-08
2.12546e-08
2.01369e-08
1.869e-08
1.69262e-08
1.49045e-08
1.27162e-08
1.04695e-08
8.2682e-09
6.20005e-09
4.32678e-09
2.66445e-09
1.2523e-09
-1.55387e-10
6.948e-06
6.94663e-06
6.943e-06
6.93694e-06
6.92796e-06
6.91518e-06
6.89738e-06
6.87296e-06
6.83981e-06
6.79521e-06
6.73558e-06
6.65628e-06
6.55134e-06
6.41312e-06
6.23207e-06
5.9964e-06
5.69201e-06
5.30251e-06
4.80973e-06
4.19486e-06
3.4404e-06
2.53336e-06
1.46962e-06
2.59432e-07
-1.06681e-06
-2.45396e-06
-3.82114e-06
-5.06716e-06
-6.08424e-06
-6.77931e-06
-7.0976e-06
-7.03893e-06
-6.6579e-06
-6.04645e-06
-5.30697e-06
-4.52889e-06
-3.77695e-06
-3.09054e-06
-2.48906e-06
-1.97814e-06
-1.5546e-06
-1.21019e-06
-9.34279e-07
-7.15818e-07
-5.44533e-07
-4.11388e-07
-3.08618e-07
-2.29634e-07
-1.68978e-07
-1.22337e-07
-8.64773e-08
-5.90344e-08
-3.82079e-08
-2.25022e-08
-1.06107e-08
-1.4432e-09
5.79711e-09
1.1585e-08
1.61321e-08
1.95147e-08
2.17996e-08
2.31225e-08
2.36912e-08
2.37393e-08
2.34614e-08
2.29717e-08
2.2295e-08
2.13944e-08
2.02111e-08
1.87086e-08
1.68944e-08
1.48273e-08
1.2601e-08
1.03275e-08
8.11301e-09
6.04606e-09
4.18767e-09
2.55265e-09
1.17818e-09
-1.76366e-10
6.95462e-06
6.95344e-06
6.95031e-06
6.94503e-06
6.93713e-06
6.92577e-06
6.90974e-06
6.88751e-06
6.85701e-06
6.81555e-06
6.7596e-06
6.68455e-06
6.58442e-06
6.45152e-06
6.2762e-06
6.04646e-06
5.74788e-06
5.36357e-06
4.8747e-06
4.26154e-06
3.50552e-06
2.59241e-06
1.51691e-06
2.88381e-07
-1.06296e-06
-2.48102e-06
-3.88245e-06
-5.16196e-06
-6.20659e-06
-6.91824e-06
-7.23892e-06
-7.16844e-06
-6.76475e-06
-6.12509e-06
-5.35713e-06
-4.55398e-06
-3.78208e-06
-3.08109e-06
-2.46987e-06
-1.95318e-06
-1.52694e-06
-1.18203e-06
-9.07096e-07
-6.90515e-07
-5.21602e-07
-3.9104e-07
-2.90866e-07
-2.14349e-07
-1.55937e-07
-1.11277e-07
-7.71416e-08
-5.11976e-08
-3.16781e-08
-1.71056e-08
-6.17799e-09
2.19246e-09
8.78932e-09
1.40599e-08
1.818e-08
2.11927e-08
2.31436e-08
2.41617e-08
2.44591e-08
2.4278e-08
2.38188e-08
2.3195e-08
2.24243e-08
2.14581e-08
2.02263e-08
1.86836e-08
1.6833e-08
1.47327e-08
1.24789e-08
1.01863e-08
7.96358e-09
5.90028e-09
4.05724e-09
2.4486e-09
1.11002e-09
-1.93735e-10
6.95955e-06
6.9585e-06
6.95572e-06
6.95099e-06
6.94386e-06
6.93348e-06
6.91871e-06
6.89801e-06
6.86936e-06
6.83011e-06
6.77675e-06
6.70468e-06
6.60793e-06
6.47879e-06
6.30751e-06
6.08199e-06
5.78757e-06
5.40703e-06
4.92107e-06
4.30934e-06
3.55252e-06
2.63551e-06
1.55216e-06
3.11192e-07
-1.05738e-06
-2.49683e-06
-3.92212e-06
-5.22514e-06
-6.28926e-06
-7.01279e-06
-7.33541e-06
-7.2569e-06
-6.83755e-06
-6.17841e-06
-5.39083e-06
-4.5705e-06
-3.78502e-06
-3.07417e-06
-2.45641e-06
-1.9359e-06
-1.50792e-06
-1.16277e-06
-8.88561e-07
-6.73307e-07
-5.06041e-07
-3.77258e-07
-2.78865e-07
-2.04033e-07
-1.47149e-07
-1.03831e-07
-7.08591e-08
-4.59249e-08
-2.72874e-08
-1.34824e-08
-3.2098e-09
4.61849e-09
1.07787e-08
1.56998e-08
1.9532e-08
2.22941e-08
2.40156e-08
2.48205e-08
2.49248e-08
2.4578e-08
2.39865e-08
2.3265e-08
2.24266e-08
2.14154e-08
2.01528e-08
1.85868e-08
1.67165e-08
1.45993e-08
1.23326e-08
1.00331e-08
7.81108e-09
5.7571e-09
3.93206e-09
2.34995e-09
1.04545e-09
-2.10614e-10
6.9627e-06
6.96173e-06
6.95913e-06
6.95471e-06
6.94799e-06
6.93816e-06
6.92407e-06
6.90421e-06
6.87658e-06
6.83853e-06
6.78658e-06
6.71614e-06
6.62123e-06
6.49414e-06
6.32508e-06
6.10189e-06
5.80978e-06
5.43138e-06
4.94714e-06
4.3364e-06
3.57944e-06
2.6607e-06
1.5736e-06
3.26482e-07
-1.05075e-06
-2.50109e-06
-3.93868e-06
-5.25393e-06
-6.32834e-06
-7.05834e-06
-7.38237e-06
-7.30014e-06
-6.87316e-06
-6.2044e-06
-5.40713e-06
-4.57833e-06
-3.78618e-06
-3.07052e-06
-2.44959e-06
-1.92725e-06
-1.49846e-06
-1.15322e-06
-8.79407e-07
-6.64831e-07
-4.98393e-07
-3.70498e-07
-2.72989e-07
-1.98993e-07
-1.42862e-07
-1.002e-07
-6.77919e-08
-4.33454e-08
-2.51354e-08
-1.17061e-08
-1.75796e-09
5.79942e-09
1.17409e-08
1.64874e-08
2.01757e-08
2.28109e-08
2.44125e-08
2.51011e-08
2.50952e-08
2.46499e-08
2.39767e-08
2.31933e-08
2.23123e-08
2.12745e-08
1.99969e-08
1.84232e-08
1.65497e-08
1.44324e-08
1.21687e-08
9.87588e-09
7.66499e-09
5.62693e-09
3.82281e-09
2.26674e-09
9.92797e-10
-2.22072e-10
6.96401e-06
6.96304e-06
6.96048e-06
6.95611e-06
6.94946e-06
6.93971e-06
6.92572e-06
6.90599e-06
6.8785e-06
6.84062e-06
6.78886e-06
6.71864e-06
6.62398e-06
6.49717e-06
6.32842e-06
6.10557e-06
5.81383e-06
5.43583e-06
4.95201e-06
4.34172e-06
3.5852e-06
2.66691e-06
1.58021e-06
3.33436e-07
-1.04355e-06
-2.49379e-06
-3.93145e-06
-5.24697e-06
-6.32186e-06
-7.05252e-06
-7.37736e-06
-7.29601e-06
-6.86993e-06
-6.20204e-06
-5.40555e-06
-4.57742e-06
-3.7858e-06
-3.07052e-06
-2.44986e-06
-1.92769e-06
-1.499e-06
-1.15381e-06
-8.80006e-07
-6.65412e-07
-4.98938e-07
-3.70996e-07
-2.7344e-07
-1.99395e-07
-1.43216e-07
-1.00504e-07
-6.80438e-08
-4.35487e-08
-2.52984e-08
-1.18407e-08
-1.87583e-09
5.68994e-09
1.1636e-08
1.6386e-08
2.00769e-08
2.27111e-08
2.43052e-08
2.4978e-08
2.49486e-08
2.4475e-08
2.37734e-08
2.29656e-08
2.20677e-08
2.10219e-08
1.97452e-08
1.818e-08
1.63209e-08
1.4222e-08
1.19794e-08
9.70924e-09
7.52203e-09
5.5084e-09
3.72948e-09
2.19968e-09
9.52758e-10
-2.28287e-10
6.96346e-06
6.96245e-06
6.95976e-06
6.95518e-06
6.94824e-06
6.93812e-06
6.92365e-06
6.90332e-06
6.87511e-06
6.83636e-06
6.78358e-06
6.71217e-06
6.61616e-06
6.48785e-06
6.31749e-06
6.09299e-06
5.79967e-06
5.42032e-06
4.93562e-06
4.32521e-06
3.56972e-06
2.65402e-06
1.57187e-06
3.31914e-07
-1.03594e-06
-2.47509e-06
-3.90061e-06
-5.20444e-06
-6.26998e-06
-6.99547e-06
-7.32047e-06
-7.24456e-06
-6.8279e-06
-6.17133e-06
-5.38609e-06
-4.56774e-06
-3.78382e-06
-3.07413e-06
-2.45717e-06
-1.93717e-06
-1.5095e-06
-1.16449e-06
-8.90324e-07
-6.7502e-07
-5.07649e-07
-3.78731e-07
-2.80195e-07
-2.05221e-07
-1.48192e-07
-1.04724e-07
-7.15978e-08
-4.65188e-08
-2.77613e-08
-1.38715e-08
-3.54899e-09
4.30426e-09
1.04775e-08
1.54081e-08
1.92462e-08
2.20037e-08
2.37011e-08
2.44573e-08
2.44901e-08
2.4058e-08
2.33805e-08
2.25852e-08
2.16952e-08
2.06592e-08
1.93985e-08
1.78572e-08
1.60295e-08
1.39672e-08
1.17635e-08
9.53216e-09
7.3815e-09
5.40111e-09
3.65189e-09
2.14856e-09
9.24808e-10
-2.30274e-10
6.96111e-06
6.95999e-06
6.95701e-06
6.95198e-06
6.94441e-06
6.93346e-06
6.91795e-06
6.89632e-06
6.86654e-06
6.82592e-06
6.77093e-06
6.69697e-06
6.59806e-06
6.46653e-06
6.29272e-06
6.06466e-06
5.76789e-06
5.38554e-06
4.89873e-06
4.28773e-06
3.53389e-06
2.6229e-06
1.54935e-06
3.22458e-07
-1.02775e-06
-2.44534e-06
-3.84715e-06
-5.12801e-06
-6.17495e-06
-6.8898e-06
-7.21434e-06
-7.14811e-06
-6.74878e-06
-6.11333e-06
-5.34918e-06
-4.54927e-06
-3.77995e-06
-3.08087e-06
-2.47098e-06
-1.95517e-06
-1.52945e-06
-1.18481e-06
-9.0995e-07
-6.93301e-07
-5.24227e-07
-3.93452e-07
-2.93048e-07
-2.16299e-07
-1.57652e-07
-1.12746e-07
-7.83591e-08
-5.21776e-08
-3.24604e-08
-1.77469e-08
-6.73549e-09
1.67733e-09
8.29567e-09
1.35804e-08
1.77076e-08
2.07094e-08
2.26176e-08
2.35529e-08
2.37309e-08
2.34082e-08
2.28064e-08
2.20604e-08
2.12035e-08
2.01953e-08
1.89657e-08
1.74635e-08
1.56835e-08
1.36752e-08
1.15277e-08
9.35053e-09
7.24873e-09
5.31002e-09
3.59472e-09
2.11786e-09
9.13167e-10
-2.24749e-10
6.95703e-06
6.95574e-06
6.95233e-06
6.9466e-06
6.93808e-06
6.92588e-06
6.90879e-06
6.88521e-06
6.85307e-06
6.80962e-06
6.75132e-06
6.67353e-06
6.57027e-06
6.43394e-06
6.25498e-06
6.02161e-06
5.7197e-06
5.33288e-06
4.84293e-06
4.23099e-06
3.4795e-06
2.57533e-06
1.51422e-06
3.06203e-07
-1.01853e-06
-2.4051e-06
-3.77284e-06
-5.02071e-06
-6.04094e-06
-6.74035e-06
-7.06386e-06
-7.01093e-06
-6.63581e-06
-6.03006e-06
-5.29575e-06
-4.5221e-06
-3.77369e-06
-3.08993e-06
-2.49033e-06
-1.98065e-06
-1.55788e-06
-1.21387e-06
-9.38096e-07
-7.1957e-07
-5.48086e-07
-4.14664e-07
-3.11588e-07
-2.32291e-07
-1.71315e-07
-1.24338e-07
-8.81355e-08
-6.03675e-08
-3.92689e-08
-2.33672e-08
-1.13577e-08
-2.13009e-09
5.13903e-09
1.09426e-08
1.5493e-08
1.8853e-08
2.10716e-08
2.22745e-08
2.26742e-08
2.25239e-08
2.20465e-08
2.13853e-08
2.05868e-08
1.9625e-08
1.8442e-08
1.6994e-08
1.52775e-08
1.33395e-08
1.1264e-08
9.15517e-09
7.11365e-09
5.22456e-09
3.54736e-09
2.0974e-09
9.08731e-10
-2.18371e-10
6.95135e-06
6.94984e-06
6.94586e-06
6.93922e-06
6.92944e-06
6.91561e-06
6.89645e-06
6.87032e-06
6.83508e-06
6.78795e-06
6.72533e-06
6.64256e-06
6.53368e-06
6.39113e-06
6.20552e-06
5.96532e-06
5.65685e-06
5.26433e-06
4.77045e-06
4.15743e-06
3.40909e-06
2.51377e-06
1.46863e-06
2.84706e-07
-1.00774e-06
-2.35516e-06
-3.68013e-06
-4.88674e-06
-5.87362e-06
-6.55368e-06
-6.87565e-06
-6.83888e-06
-6.49344e-06
-5.92436e-06
-5.22718e-06
-4.48645e-06
-3.76448e-06
-3.10027e-06
-2.51394e-06
-2.01229e-06
-1.59349e-06
-1.25048e-06
-9.73694e-07
-7.52896e-07
-5.78425e-07
-4.41691e-07
-3.3525e-07
-2.52729e-07
-1.88792e-07
-1.39177e-07
-1.00656e-07
-7.08629e-08
-4.80005e-08
-3.05801e-08
-1.72909e-08
-7.01404e-09
1.09708e-09
7.57381e-09
1.26734e-08
1.6497e-08
1.91172e-08
2.06672e-08
2.13571e-08
2.14359e-08
2.11281e-08
2.05856e-08
1.98703e-08
1.89737e-08
1.78527e-08
1.64729e-08
1.48337e-08
1.29796e-08
1.0989e-08
8.95969e-09
6.98719e-09
5.15353e-09
3.51715e-09
2.09369e-09
9.17692e-10
-2.05671e-10
6.94423e-06
6.94246e-06
6.93779e-06
6.93005e-06
6.91875e-06
6.90293e-06
6.88127e-06
6.85206e-06
6.8131e-06
6.76154e-06
6.69374e-06
6.605e-06
6.48939e-06
6.33944e-06
6.14592e-06
5.89767e-06
5.5815e-06
5.18238e-06
4.68404e-06
4.07002e-06
3.32571e-06
2.44117e-06
1.41515e-06
2.59731e-07
-9.94808e-07
-2.2966e-06
-3.57202e-06
-4.73109e-06
-5.67967e-06
-6.33748e-06
-6.65747e-06
-6.63883e-06
-6.32703e-06
-5.79978e-06
-5.14529e-06
-4.44278e-06
-3.75183e-06
-3.11079e-06
-2.54037e-06
-2.04853e-06
-1.63473e-06
-1.29319e-06
-1.01542e-06
-7.92109e-07
-6.14232e-07
-4.73668e-07
-3.63306e-07
-2.77003e-07
-2.09578e-07
-1.56841e-07
-1.15573e-07
-8.33771e-08
-5.84232e-08
-3.92006e-08
-2.43894e-08
-1.28593e-08
-3.73774e-09
3.54944e-09
9.31e-09
1.36896e-08
1.67894e-08
1.87537e-08
1.97915e-08
2.01483e-08
2.00497e-08
1.96574e-08
1.90498e-08
1.82375e-08
1.71941e-08
1.58962e-08
1.43468e-08
1.25881e-08
1.06928e-08
8.75178e-09
6.85522e-09
5.08173e-09
3.48863e-09
2.09194e-09
9.2708e-10
-1.95686e-10
6.93588e-06
6.93381e-06
6.92835e-06
6.91934e-06
6.9063e-06
6.88821e-06
6.86369e-06
6.83096e-06
6.78774e-06
6.73114e-06
6.65744e-06
6.56193e-06
6.43871e-06
6.28042e-06
6.07805e-06
5.82081e-06
5.49613e-06
5.08983e-06
4.5868e-06
3.97206e-06
3.23272e-06
2.36071e-06
1.35643e-06
2.33046e-07
-9.79323e-07
-2.23078e-06
-3.45194e-06
-4.55925e-06
-5.46628e-06
-6.09997e-06
-6.4176e-06
-6.4182e-06
-6.14241e-06
-5.6603e-06
-5.0523e-06
-4.39184e-06
-3.7354e-06
-3.12044e-06
-2.56819e-06
-2.08775e-06
-1.67995e-06
-1.34041e-06
-1.06185e-06
-8.35927e-07
-6.54388e-07
-5.09636e-07
-3.94941e-07
-3.04432e-07
-2.33103e-07
-1.76855e-07
-1.32489e-07
-9.75806e-08
-7.02651e-08
-4.90063e-08
-3.24711e-08
-1.95152e-08
-9.23811e-09
-1.02069e-09
5.49844e-09
1.05135e-08
1.41585e-08
1.65924e-08
1.80256e-08
1.87011e-08
1.88464e-08
1.86331e-08
1.81565e-08
1.7447e-08
1.6496e-08
1.52917e-08
1.38417e-08
1.21864e-08
1.03928e-08
8.54531e-09
6.72839e-09
5.01738e-09
3.46844e-09
2.09809e-09
9.4282e-10
-1.82826e-10
6.92653e-06
6.92412e-06
6.91779e-06
6.90739e-06
6.89243e-06
6.87184e-06
6.84418e-06
6.80758e-06
6.75971e-06
6.69758e-06
6.61744e-06
6.51457e-06
6.3831e-06
6.21579e-06
6.00391e-06
5.73709e-06
5.40342e-06
4.98968e-06
4.48199e-06
3.86697e-06
3.13355e-06
2.27555e-06
1.29507e-06
2.06255e-07
-9.61096e-07
-2.1593e-06
-3.3235e-06
-4.37683e-06
-5.24072e-06
-5.84935e-06
-6.16433e-06
-6.18446e-06
-5.94562e-06
-5.5102e-06
-4.95075e-06
-4.33469e-06
-3.7151e-06
-3.12837e-06
-2.59605e-06
-2.12834e-06
-1.72749e-06
-1.39051e-06
-1.11143e-06
-8.82967e-07
-6.97666e-07
-5.48528e-07
-4.29243e-07
-3.3424e-07
-2.58714e-07
-1.98672e-07
-1.50946e-07
-1.13094e-07
-8.32139e-08
-5.97427e-08
-4.133e-08
-2.6815e-08
-1.52682e-08
-6.02524e-09
1.32981e-09
7.04202e-09
1.12816e-08
1.42256e-08
1.60891e-08
1.71144e-08
1.75314e-08
1.75216e-08
1.71969e-08
1.66072e-08
1.57618e-08
1.46609e-08
1.33173e-08
1.17702e-08
1.00819e-08
8.3303e-09
6.59475e-09
4.94734e-09
3.44322e-09
2.09943e-09
9.53888e-10
-1.74663e-10
6.91643e-06
6.91366e-06
6.9064e-06
6.89451e-06
6.87751e-06
6.85427e-06
6.82326e-06
6.78255e-06
6.72974e-06
6.66177e-06
6.57484e-06
6.46422e-06
6.32409e-06
6.14738e-06
5.92562e-06
5.64894e-06
5.30613e-06
4.88496e-06
4.37289e-06
3.75814e-06
3.0315e-06
2.18869e-06
1.23342e-06
1.80683e-07
-9.40202e-07
-2.08396e-06
-3.19039e-06
-4.18932e-06
-5.00994e-06
-5.59341e-06
-5.9055e-06
-5.9448e-06
-5.74256e-06
-5.35381e-06
-4.84338e-06
-4.27264e-06
-3.69116e-06
-3.13396e-06
-2.6228e-06
-2.16887e-06
-1.77577e-06
-1.44193e-06
-1.16268e-06
-9.31854e-07
-7.42838e-07
-5.89265e-07
-4.65279e-07
-3.65632e-07
-2.85738e-07
-2.21727e-07
-1.70474e-07
-1.29524e-07
-9.69455e-08
-7.11432e-08
-5.07473e-08
-3.45786e-08
-2.16788e-08
-1.13394e-08
-3.09078e-09
3.3636e-09
8.23258e-09
1.17147e-08
1.40327e-08
1.54304e-08
1.61409e-08
1.63551e-08
1.62003e-08
1.57451e-08
1.50161e-08
1.40258e-08
1.27925e-08
1.13553e-08
9.7724e-09
8.11631e-09
6.46154e-09
4.87726e-09
3.41769e-09
2.10041e-09
9.64869e-10
-1.66888e-10
6.90585e-06
6.90271e-06
6.89448e-06
6.88106e-06
6.86194e-06
6.83595e-06
6.80148e-06
6.75654e-06
6.69863e-06
6.62466e-06
6.53077e-06
6.41222e-06
6.26328e-06
6.07703e-06
5.84533e-06
5.5588e-06
5.20697e-06
4.77865e-06
4.26262e-06
3.64875e-06
2.92962e-06
2.10279e-06
1.17346e-06
1.5731e-07
-9.16986e-07
-2.00667e-06
-3.05619e-06
-4.00187e-06
-4.78031e-06
-5.33923e-06
-5.64827e-06
-5.70582e-06
-5.53882e-06
-5.19539e-06
-4.73304e-06
-4.20728e-06
-3.66405e-06
-3.13689e-06
-2.64754e-06
-2.20809e-06