/*--------------------------------*- C++ -*----------------------------------*\
| =========                 |                                                 |
| \\      /  F ield         | OpenFOAM: The Open Source CFD Toolbox           |
|  \\    /   O peration     | Version:  2512                                  |
|   \\  /    A nd           | Website:  www.openfoam.com                      |
|    \\/     M anipulation  |                                                 |
\*---------------------------------------------------------------------------*/
FoamFile
{
    version     2.0;
    format      ascii;
    arch        "LSB;label=32;scalar=64";
    class       volScalarField;
    location    "181";
    object      p;
}
// * * * * * * * * * * * * * * * * * * * * * * * * * * * * * * * * * * * * * //

dimensions      [0 2 -2 0 0 0 0];

internalField   nonuniform List<scalar> 
248793
(
3.34132e-05
3.33781e-05
3.32882e-05
3.31439e-05
3.29427e-05
3.26765e-05
3.23339e-05
3.19012e-05
3.13621e-05
3.06972e-05
2.98837e-05
2.88958e-05
2.77047e-05
2.62793e-05
2.45871e-05
2.25959e-05
2.02758e-05
1.76025e-05
1.45609e-05
1.11496e-05
7.38634e-06
3.31214e-06
-1.00408e-06
-5.46348e-06
-9.93804e-06
-1.42754e-05
-1.83083e-05
-2.18686e-05
-2.48044e-05
-2.69976e-05
-2.83788e-05
-2.89363e-05
-2.87158e-05
-2.78128e-05
-2.63569e-05
-2.44943e-05
-2.23708e-05
-2.01187e-05
-1.78484e-05
-1.56458e-05
-1.35721e-05
-1.16665e-05
-9.95008e-06
-8.42953e-06
-7.10129e-06
-5.95474e-06
-4.97498e-06
-4.14488e-06
-3.4467e-06
-2.86307e-06
-2.37769e-06
-1.97571e-06
-1.64392e-06
-1.37075e-06
-1.14624e-06
-9.61882e-07
-8.10516e-07
-6.86146e-07
-5.8379e-07
-4.99334e-07
-4.294e-07
-3.71224e-07
-3.22553e-07
-2.81558e-07
-2.46757e-07
-2.16953e-07
-1.91181e-07
-1.68661e-07
-1.48768e-07
-1.30996e-07
-1.14937e-07
-1.00261e-07
-8.66985e-08
-7.40265e-08
-6.20565e-08
-5.06262e-08
-3.95946e-08
-2.88524e-08
-1.82588e-08
-8.50106e-09
3.34232e-05
3.33884e-05
3.32994e-05
3.31564e-05
3.29572e-05
3.26934e-05
3.23537e-05
3.19247e-05
3.13899e-05
3.073e-05
2.99221e-05
2.89405e-05
2.77562e-05
2.63379e-05
2.46526e-05
2.26677e-05
2.03526e-05
1.76822e-05
1.46402e-05
1.12245e-05
7.45136e-06
3.36119e-06
-9.77566e-07
-5.4658e-06
-9.97434e-06
-1.43487e-05
-1.84184e-05
-2.20118e-05
-2.49731e-05
-2.7181e-05
-2.85645e-05
-2.91118e-05
-2.88706e-05
-2.79395e-05
-2.64518e-05
-2.45575e-05
-2.24049e-05
-2.01281e-05
-1.78386e-05
-1.56219e-05
-1.35389e-05
-1.16281e-05
-9.90962e-06
-8.38938e-06
-7.06308e-06
-5.91949e-06
-4.94322e-06
-4.11683e-06
-3.42231e-06
-2.84214e-06
-2.35993e-06
-1.96079e-06
-1.63149e-06
-1.36047e-06
-1.13779e-06
-9.54974e-07
-8.049e-07
-6.81602e-07
-5.8013e-07
-4.96399e-07
-4.27056e-07
-3.6936e-07
-3.21077e-07
-2.80394e-07
-2.45843e-07
-2.16239e-07
-1.90626e-07
-1.68232e-07
-1.48438e-07
-1.30744e-07
-1.14745e-07
-1.00116e-07
-8.65894e-08
-7.3945e-08
-6.19962e-08
-5.05827e-08
-3.95652e-08
-2.88352e-08
-1.82558e-08
-8.48388e-09
3.34428e-05
3.34087e-05
3.33214e-05
3.31812e-05
3.29856e-05
3.27265e-05
3.23929e-05
3.1971e-05
3.14447e-05
3.07947e-05
2.99981e-05
2.90289e-05
2.78581e-05
2.64537e-05
2.47822e-05
2.28099e-05
2.05048e-05
1.78402e-05
1.47979e-05
1.13734e-05
7.581e-06
3.45936e-06
-9.23942e-07
-5.46935e-06
-1.00454e-05
-1.44934e-05
-1.86368e-05
-2.22962e-05
-2.53084e-05
-2.75459e-05
-2.8934e-05
-2.94611e-05
-2.91786e-05
-2.81913e-05
-2.66403e-05
-2.46826e-05
-2.24722e-05
-2.01466e-05
-1.78187e-05
-1.55742e-05
-1.34729e-05
-1.15519e-05
-9.82937e-06
-8.3098e-06
-6.98737e-06
-5.84965e-06
-4.88034e-06
-4.0613e-06
-3.37404e-06
-2.80073e-06
-2.3248e-06
-1.93127e-06
-1.60689e-06
-1.34012e-06
-1.12105e-06
-9.41296e-07
-7.93777e-07
-6.72599e-07
-5.72874e-07
-4.90576e-07
-4.22401e-07
-3.65652e-07
-3.18135e-07
-2.78068e-07
-2.4401e-07
-2.14799e-07
-1.89498e-07
-1.67352e-07
-1.47754e-07
-1.30213e-07
-1.14334e-07
-9.97986e-08
-8.63442e-08
-7.37554e-08
-6.18499e-08
-5.04708e-08
-3.94824e-08
-2.87784e-08
-1.82229e-08
-8.46109e-09
3.34717e-05
3.34385e-05
3.33538e-05
3.32175e-05
3.30274e-05
3.27753e-05
3.24504e-05
3.20391e-05
3.15254e-05
3.089e-05
3.011e-05
2.91593e-05
2.80084e-05
2.66247e-05
2.49737e-05
2.30202e-05
2.07304e-05
1.80747e-05
1.50322e-05
1.15952e-05
7.77471e-06
3.60676e-06
-8.42459e-07
-5.47279e-06
-1.01495e-05
-1.47076e-05
-1.89611e-05
-2.27196e-05
-2.58083e-05
-2.80902e-05
-2.94852e-05
-2.99817e-05
-2.96368e-05
-2.8565e-05
-2.69191e-05
-2.48666e-05
-2.257e-05
-2.01719e-05
-1.77874e-05
-1.55021e-05
-1.33741e-05
-1.14381e-05
-9.71004e-06
-8.19173e-06
-6.87524e-06
-5.74638e-06
-4.78746e-06
-3.97935e-06
-3.30287e-06
-2.73972e-06
-2.27308e-06
-1.88784e-06
-1.57072e-06
-1.31021e-06
-1.09648e-06
-9.21222e-07
-7.77464e-07
-6.59406e-07
-5.62254e-07
-4.82063e-07
-4.15607e-07
-3.60253e-07
-3.13862e-07
-2.74702e-07
-2.41371e-07
-2.1274e-07
-1.879e-07
-1.6612e-07
-1.46809e-07
-1.29495e-07
-1.13793e-07
-9.93937e-08
-8.60444e-08
-7.35358e-08
-6.16913e-08
-5.03593e-08
-3.94089e-08
-2.87371e-08
-1.82091e-08
-8.46196e-09
3.3509e-05
3.34771e-05
3.33956e-05
3.32646e-05
3.30815e-05
3.28386e-05
3.2525e-05
3.21275e-05
3.16301e-05
3.10137e-05
3.02554e-05
2.93289e-05
2.8204e-05
2.68476e-05
2.52236e-05
2.32951e-05
2.10255e-05
1.83822e-05
1.53403e-05
1.18876e-05
8.03112e-06
3.80312e-06
-7.32182e-07
-5.47401e-06
-1.02835e-05
-1.49872e-05
-1.93871e-05
-2.32775e-05
-2.64682e-05
-2.88092e-05
-3.02131e-05
-3.06684e-05
-3.02398e-05
-2.90552e-05
-2.72829e-05
-2.51051e-05
-2.2695e-05
-2.02019e-05
-1.77435e-05
-1.54052e-05
-1.32429e-05
-1.12881e-05
-9.55328e-06
-8.03707e-06
-6.72869e-06
-5.61165e-06
-4.66648e-06
-3.87275e-06
-3.21038e-06
-2.66051e-06
-2.20598e-06
-1.83153e-06
-1.52384e-06
-1.27146e-06
-1.06466e-06
-8.95237e-07
-7.5635e-07
-6.4233e-07
-5.48503e-07
-4.71036e-07
-4.06798e-07
-3.53243e-07
-3.08305e-07
-2.70312e-07
-2.37915e-07
-2.1003e-07
-1.85782e-07
-1.64471e-07
-1.45531e-07
-1.28507e-07
-1.13033e-07
-9.88117e-08
-8.56001e-08
-7.31982e-08
-6.14363e-08
-5.01697e-08
-3.9273e-08
-2.86479e-08
-1.81611e-08
-8.44487e-09
3.35539e-05
3.35235e-05
3.3446e-05
3.33211e-05
3.31466e-05
3.29147e-05
3.26148e-05
3.2234e-05
3.17565e-05
3.11631e-05
3.04312e-05
2.9534e-05
2.8441e-05
2.71179e-05
2.55272e-05
2.36296e-05
2.13855e-05
1.87582e-05
1.57181e-05
1.22476e-05
8.34833e-06
4.04797e-06
-5.91989e-07
-5.47031e-06
-1.04432e-05
-1.53272e-05
-1.99088e-05
-2.39637e-05
-2.72818e-05
-2.96966e-05
-3.11112e-05
-3.15144e-05
-3.09806e-05
-2.9655e-05
-2.77255e-05
-2.53924e-05
-2.28426e-05
-2.02334e-05
-1.76855e-05
-1.52834e-05
-1.30802e-05
-1.11034e-05
-9.36118e-06
-7.84822e-06
-6.55024e-06
-5.44796e-06
-4.51977e-06
-3.74367e-06
-3.09854e-06
-2.56484e-06
-2.12502e-06
-1.76366e-06
-1.4674e-06
-1.22486e-06
-1.02642e-06
-8.64038e-07
-7.31029e-07
-6.21878e-07
-5.3206e-07
-4.57875e-07
-3.96311e-07
-3.44924e-07
-3.01734e-07
-2.65147e-07
-2.33876e-07
-2.06888e-07
-1.83352e-07
-1.62604e-07
-1.44108e-07
-1.27431e-07
-1.12228e-07
-9.82148e-08
-8.51632e-08
-7.28827e-08
-6.12124e-08
-5.00148e-08
-3.91713e-08
-2.8589e-08
-1.81368e-08
-8.4439e-09
3.36052e-05
3.35766e-05
3.35036e-05
3.33859e-05
3.32211e-05
3.30018e-05
3.27177e-05
3.23561e-05
3.19015e-05
3.13348e-05
3.06333e-05
2.97702e-05
2.87142e-05
2.74301e-05
2.58785e-05
2.40175e-05
2.1804e-05
1.91966e-05
1.61601e-05
1.26707e-05
8.72327e-06
4.34003e-06
-4.21137e-07
-5.45885e-06
-1.06239e-05
-1.5721e-05
-2.05187e-05
-2.47698e-05
-2.82402e-05
-3.07432e-05
-3.21702e-05
-3.251e-05
-3.18497e-05
-3.03551e-05
-2.82383e-05
-2.57215e-05
-2.30077e-05
-2.02632e-05
-1.76117e-05
-1.51366e-05
-1.28872e-05
-1.08862e-05
-9.13661e-06
-7.62837e-06
-6.34318e-06
-5.25854e-06
-4.35037e-06
-3.59492e-06
-2.96986e-06
-2.45492e-06
-2.03211e-06
-1.68584e-06
-1.40274e-06
-1.1715e-06
-9.82663e-07
-8.2835e-07
-7.02067e-07
-5.98484e-07
-5.13244e-07
-4.42803e-07
-3.84285e-07
-3.35365e-07
-2.94166e-07
-2.59176e-07
-2.29183e-07
-2.03214e-07
-1.80489e-07
-1.60382e-07
-1.42392e-07
-1.26115e-07
-1.11223e-07
-9.74553e-08
-8.45947e-08
-7.24629e-08
-6.09085e-08
-4.98022e-08
-3.90321e-08
-2.85107e-08
-1.81091e-08
-8.45121e-09
3.36616e-05
3.3635e-05
3.35669e-05
3.34571e-05
3.33032e-05
3.30979e-05
3.28313e-05
3.2491e-05
3.20617e-05
3.15247e-05
3.08572e-05
3.00322e-05
2.90178e-05
2.77776e-05
2.62703e-05
2.44512e-05
2.22732e-05
1.96899e-05
1.66594e-05
1.31508e-05
9.15163e-06
4.67708e-06
-2.19372e-07
-5.43669e-06
-1.082e-05
-1.61608e-05
-2.12069e-05
-2.56846e-05
-2.93315e-05
-3.19366e-05
-3.33773e-05
-3.36428e-05
-3.28346e-05
-3.11438e-05
-2.88111e-05
-2.60843e-05
-2.31845e-05
-2.02879e-05
-1.75211e-05
-1.49656e-05
-1.26662e-05
-1.06397e-05
-8.88333e-06
-7.38155e-06
-6.11158e-06
-5.0473e-06
-4.16193e-06
-3.42981e-06
-2.82731e-06
-2.33334e-06
-1.92951e-06
-1.60003e-06
-1.33154e-06
-1.11283e-06
-9.34614e-07
-7.89224e-07
-6.70373e-07
-5.72936e-07
-4.92747e-07
-4.26434e-07
-3.71274e-07
-3.25072e-07
-2.86062e-07
-2.52828e-07
-2.24238e-07
-1.99384e-07
-1.77542e-07
-1.58132e-07
-1.40688e-07
-1.24836e-07
-1.10275e-07
-9.67599e-08
-8.40921e-08
-7.21055e-08
-6.06589e-08
-4.96315e-08
-3.89189e-08
-2.84395e-08
-1.80689e-08
-8.43407e-09
3.37217e-05
3.36972e-05
3.36345e-05
3.35332e-05
3.33908e-05
3.32006e-05
3.29527e-05
3.26353e-05
3.22334e-05
3.17283e-05
3.10976e-05
3.03139e-05
2.93449e-05
2.81527e-05
2.66943e-05
2.49218e-05
2.2784e-05
2.02286e-05
1.72071e-05
1.36804e-05
9.62736e-06
5.05544e-06
1.25631e-08
-5.40127e-06
-1.10255e-05
-1.66373e-05
-2.19616e-05
-2.66942e-05
-3.05403e-05
-3.32606e-05
-3.47161e-05
-3.48963e-05
-3.39199e-05
-3.20072e-05
-2.94322e-05
-2.64716e-05
-2.33668e-05
-2.03043e-05
-1.7413e-05
-1.4772e-05
-1.24202e-05
-1.0368e-05
-8.60595e-06
-7.11262e-06
-5.86023e-06
-4.81879e-06
-3.95864e-06
-3.25209e-06
-2.67416e-06
-2.20295e-06
-1.81962e-06
-1.50823e-06
-1.25543e-06
-1.05016e-06
-8.83321e-07
-7.47465e-07
-6.36545e-07
-5.45657e-07
-4.70844e-07
-4.0892e-07
-3.57326e-07
-3.14008e-07
-2.77322e-07
-2.45952e-07
-2.18851e-07
-1.95184e-07
-1.74285e-07
-1.55622e-07
-1.38768e-07
-1.23381e-07
-1.09185e-07
-9.59568e-08
-8.35137e-08
-7.17031e-08
-6.03944e-08
-4.94749e-08
-3.88472e-08
-2.84348e-08
-1.8114e-08
-8.50288e-09
3.37839e-05
3.37616e-05
3.37044e-05
3.3612e-05
3.34818e-05
3.33072e-05
3.3079e-05
3.27855e-05
3.24122e-05
3.19409e-05
3.13489e-05
3.06088e-05
2.96878e-05
2.85469e-05
2.71409e-05
2.5419e-05
2.33253e-05
2.08018e-05
1.77926e-05
1.42496e-05
1.01425e-05
5.4697e-06
2.72601e-07
-5.35069e-06
-1.12341e-05
-1.71401e-05
-2.27683e-05
-2.7781e-05
-3.18468e-05
-3.46943e-05
-3.61654e-05
-3.62499e-05
-3.50863e-05
-3.29286e-05
-3.00881e-05
-2.68739e-05
-2.35488e-05
-2.03098e-05
-1.72879e-05
-1.45582e-05
-1.21534e-05
-1.00763e-05
-8.3102e-06
-6.82737e-06
-5.59476e-06
-4.57829e-06
-3.74534e-06
-3.0661e-06
-2.51426e-06
-2.06709e-06
-1.70535e-06
-1.41296e-06
-1.1766e-06
-9.85377e-07
-8.30406e-07
-7.0449e-07
-6.01826e-07
-5.17749e-07
-4.4852e-07
-3.9115e-07
-3.4325e-07
-3.02915e-07
-2.68625e-07
-2.39171e-07
-2.13596e-07
-1.91137e-07
-1.71192e-07
-1.53277e-07
-1.37006e-07
-1.22071e-07
-1.08221e-07
-9.52568e-08
-8.30124e-08
-7.13493e-08
-6.01477e-08
-4.93036e-08
-3.87265e-08
-2.83462e-08
-1.80455e-08
-8.45393e-09
3.38467e-05
3.38266e-05
3.37751e-05
3.36916e-05
3.35737e-05
3.34151e-05
3.32069e-05
3.29379e-05
3.25939e-05
3.2157e-05
3.16048e-05
3.09097e-05
3.00384e-05
2.89508e-05
2.75997e-05
2.59311e-05
2.38848e-05
2.13967e-05
1.8403e-05
1.48466e-05
1.06868e-05
5.91233e-06
5.56921e-07
-5.28414e-06
-1.14399e-05
-1.76576e-05
-2.36102e-05
-2.8924e-05
-3.32269e-05
-3.62116e-05
-3.76989e-05
-3.76784e-05
-3.63113e-05
-3.38889e-05
-3.07641e-05
-2.72809e-05
-2.37248e-05
-2.0303e-05
-1.71474e-05
-1.43283e-05
-1.18712e-05
-9.77081e-06
-8.00271e-06
-6.53239e-06
-5.32141e-06
-4.33153e-06
-3.52711e-06
-2.8763e-06
-2.35142e-06
-1.92898e-06
-1.58936e-06
-1.31635e-06
-1.09674e-06
-9.19788e-07
-7.76852e-07
-6.60995e-07
-5.66674e-07
-4.8947e-07
-4.25871e-07
-3.73089e-07
-3.28911e-07
-2.91581e-07
-2.59706e-07
-2.32187e-07
-2.08156e-07
-1.86928e-07
-1.67958e-07
-1.50816e-07
-1.35155e-07
-1.207e-07
-1.07228e-07
-9.456e-08
-8.25488e-08
-7.10689e-08
-6.00107e-08
-4.92782e-08
-3.87864e-08
-2.84692e-08
-1.82075e-08
-8.6148e-09
3.39084e-05
3.38905e-05
3.38446e-05
3.377e-05
3.36643e-05
3.35216e-05
3.33332e-05
3.30886e-05
3.27738e-05
3.23712e-05
3.18589e-05
3.1209e-05
3.03879e-05
2.93543e-05
2.80592e-05
2.64456e-05
2.44489e-05
2.19989e-05
1.90239e-05
1.54573e-05
1.12477e-05
6.37347e-06
8.59642e-07
-5.20228e-06
-1.16373e-05
-1.81775e-05
-2.44685e-05
-3.00983e-05
-3.46512e-05
-3.77809e-05
-3.92844e-05
-3.91516e-05
-3.75681e-05
-3.48664e-05
-3.14442e-05
-2.76826e-05
-2.38901e-05
-2.02836e-05
-1.69945e-05
-1.40878e-05
-1.15807e-05
-9.45927e-06
-7.69126e-06
-6.23523e-06
-5.04725e-06
-4.08497e-06
-3.30979e-06
-2.68782e-06
-2.19015e-06
-1.79255e-06
-1.47505e-06
-1.2214e-06
-1.01844e-06
-8.55657e-07
-7.24648e-07
-6.18743e-07
-5.32659e-07
-4.6223e-07
-4.0417e-07
-3.55891e-07
-3.15354e-07
-2.80954e-07
-2.51424e-07
-2.25773e-07
-2.03222e-07
-1.83159e-07
-1.65104e-07
-1.48674e-07
-1.33564e-07
-1.19531e-07
-1.0638e-07
-9.3953e-08
-8.21208e-08
-7.07714e-08
-5.98053e-08
-4.91338e-08
-3.86784e-08
-2.83781e-08
-1.8122e-08
-8.54177e-09
3.39675e-05
3.39517e-05
3.39112e-05
3.38452e-05
3.37513e-05
3.36238e-05
3.34547e-05
3.32336e-05
3.29472e-05
3.25782e-05
3.21047e-05
3.14991e-05
3.07272e-05
2.97469e-05
2.85075e-05
2.69491e-05
2.50028e-05
2.25925e-05
1.96388e-05
1.60654e-05
1.18104e-05
6.84082e-06
1.1726e-06
-5.10758e-06
-1.18215e-05
-1.8687e-05
-2.53221e-05
-3.12753e-05
-3.60854e-05
-3.93645e-05
-4.08842e-05
-4.06343e-05
-3.88266e-05
-3.58374e-05
-3.2112e-05
-2.80694e-05
-2.40412e-05
-2.02527e-05
-1.6834e-05
-1.38435e-05
-1.12898e-05
-9.1502e-06
-7.3843e-06
-5.94385e-06
-4.77954e-06
-3.84504e-06
-3.09891e-06
-2.50539e-06
-2.03438e-06
-1.66099e-06
-1.36499e-06
-1.13005e-06
-9.43182e-07
-7.94046e-07
-6.74502e-07
-5.78146e-07
-4.99958e-07
-4.36016e-07
-3.83255e-07
-3.39284e-07
-3.02232e-07
-2.70639e-07
-2.43361e-07
-2.19508e-07
-1.98388e-07
-1.79462e-07
-1.62306e-07
-1.46585e-07
-1.32033e-07
-1.18438e-07
-1.05629e-07
-9.34715e-08
-8.18502e-08
-7.0666e-08
-5.98282e-08
-4.92547e-08
-3.8871e-08
-2.86187e-08
-1.83823e-08
-8.77297e-09
3.40222e-05
3.40085e-05
3.3973e-05
3.39151e-05
3.38322e-05
3.37192e-05
3.35682e-05
3.33693e-05
3.31097e-05
3.27723e-05
3.23356e-05
3.17721e-05
3.10473e-05
3.01181e-05
2.89325e-05
2.74277e-05
2.55309e-05
2.31607e-05
2.02299e-05
1.66532e-05
1.23578e-05
7.29982e-06
1.48533e-06
-5.00445e-06
-1.19892e-05
-1.91735e-05
-2.61485e-05
-3.24235e-05
-3.74909e-05
-4.09197e-05
-4.24552e-05
-4.20867e-05
-4.00532e-05
-3.67766e-05
-3.27507e-05
-2.84327e-05
-2.41761e-05
-2.02133e-05
-1.66722e-05
-1.36038e-05
-1.1008e-05
-8.85329e-06
-7.09125e-06
-5.66705e-06
-4.52632e-06
-3.61893e-06
-2.90086e-06
-2.33459e-06
-1.88898e-06
-1.53856e-06
-1.26286e-06
-1.04558e-06
-8.73821e-07
-7.37479e-07
-6.28658e-07
-5.41213e-07
-4.70374e-07
-4.12453e-07
-3.64596e-07
-3.24596e-07
-2.90744e-07
-2.61712e-07
-2.36474e-07
-2.14236e-07
-1.94388e-07
-1.76457e-07
-1.60075e-07
-1.44952e-07
-1.30856e-07
-1.17605e-07
-1.05055e-07
-9.30886e-08
-8.16067e-08
-7.05217e-08
-5.97511e-08
-4.92183e-08
-3.88531e-08
-2.86014e-08
-1.83542e-08
-8.73928e-09
3.40713e-05
3.40593e-05
3.40285e-05
3.39778e-05
3.39051e-05
3.38051e-05
3.36706e-05
3.3492e-05
3.32568e-05
3.29484e-05
3.25455e-05
3.20207e-05
3.13392e-05
3.04575e-05
2.93218e-05
2.78674e-05
2.60177e-05
2.36861e-05
2.07788e-05
1.72016e-05
1.28716e-05
7.73402e-06
1.78534e-06
-4.89927e-06
-1.21384e-05
-1.96247e-05
-2.69245e-05
-3.3509e-05
-3.88251e-05
-4.23992e-05
-4.39496e-05
-4.34652e-05
-4.12122e-05
-3.76579e-05
-3.33441e-05
-2.8765e-05
-2.42942e-05
-2.01699e-05
-1.65167e-05
-1.33781e-05
-1.07454e-05
-8.57849e-06
-6.82142e-06
-5.41328e-06
-4.29498e-06
-3.413e-06
-2.72094e-06
-2.17979e-06
-1.75744e-06
-1.42799e-06
-1.17076e-06
-9.69472e-07
-8.11381e-07
-6.86583e-07
-5.87417e-07
-5.07981e-07
-4.43738e-07
-3.91216e-07
-3.47753e-07
-3.11311e-07
-2.80325e-07
-2.5359e-07
-2.30184e-07
-2.094e-07
-1.90703e-07
-1.73679e-07
-1.58008e-07
-1.43441e-07
-1.29778e-07
-1.16863e-07
-1.04572e-07
-9.28062e-08
-8.14801e-08
-7.05153e-08
-5.98359e-08
-4.93695e-08
-3.90489e-08
-2.88211e-08
-1.85735e-08
-8.92153e-09
3.41133e-05
3.41029e-05
3.40761e-05
3.40318e-05
3.39679e-05
3.38793e-05
3.37593e-05
3.35984e-05
3.33846e-05
3.31017e-05
3.27285e-05
3.22378e-05
3.15947e-05
3.07551e-05
2.96641e-05
2.82548e-05
2.64478e-05
2.41518e-05
2.1267e-05
1.76913e-05
1.33325e-05
8.12586e-06
2.05865e-06
-4.8001e-06
-1.22687e-05
-2.00298e-05
-2.76271e-05
-3.4497e-05
-4.00437e-05
-4.37529e-05
-4.5317e-05
-4.47243e-05
-4.22668e-05
-3.84553e-05
-3.38771e-05
-2.90603e-05
-2.43966e-05
-2.01284e-05
-1.63764e-05
-1.31769e-05
-1.05128e-05
-8.33634e-06
-6.58472e-06
-5.19154e-06
-4.09358e-06
-3.23434e-06
-2.56539e-06
-2.0464e-06
-1.64452e-06
-1.33342e-06
-1.09231e-06
-9.04948e-07
-7.58718e-07
-6.43911e-07
-5.53079e-07
-4.80534e-07
-4.21949e-07
-3.74039e-07
-3.34315e-07
-3.00885e-07
-2.72309e-07
-2.47492e-07
-2.25599e-07
-2.06004e-07
-1.88232e-07
-1.71925e-07
-1.56804e-07
-1.42653e-07
-1.29303e-07
-1.16618e-07
-1.04496e-07
-9.28513e-08
-8.16099e-08
-7.07021e-08
-6.00573e-08
-4.96066e-08
-3.92851e-08
-2.90416e-08
-1.87636e-08
-9.06424e-09
3.41471e-05
3.4138e-05
3.41145e-05
3.40756e-05
3.40189e-05
3.39398e-05
3.38317e-05
3.36855e-05
3.34895e-05
3.32277e-05
3.28794e-05
3.24172e-05
3.18062e-05
3.10019e-05
2.99485e-05
2.85775e-05
2.68069e-05
2.45417e-05
2.16767e-05
1.81034e-05
1.37216e-05
8.45767e-06
2.29071e-06
-4.71599e-06
-1.23812e-05
-2.03792e-05
-2.82347e-05
-3.53536e-05
-4.11025e-05
-4.49305e-05
-4.65067e-05
-4.58183e-05
-4.31808e-05
-3.91442e-05
-3.43359e-05
-2.93141e-05
-2.44855e-05
-2.00953e-05
-1.62604e-05
-1.30101e-05
-1.03203e-05
-8.13639e-06
-6.38975e-06
-5.00935e-06
-3.92851e-06
-3.08826e-06
-2.4385e-06
-1.93784e-06
-1.5528e-06
-1.25676e-06
-1.02884e-06
-8.52833e-07
-7.16246e-07
-6.09535e-07
-5.25436e-07
-4.58442e-07
-4.04398e-07
-3.60179e-07
-3.23435e-07
-2.92398e-07
-2.6573e-07
-2.42424e-07
-2.2172e-07
-2.03053e-07
-1.86002e-07
-1.7025e-07
-1.55555e-07
-1.41727e-07
-1.2862e-07
-1.16117e-07
-1.04128e-07
-9.25826e-08
-8.1414e-08
-7.05588e-08
-5.99502e-08
-4.95218e-08
-3.92097e-08
-2.89647e-08
-1.86782e-08
-8.98057e-09
3.41718e-05
3.41637e-05
3.41427e-05
3.41078e-05
3.40566e-05
3.39848e-05
3.38858e-05
3.37509e-05
3.35685e-05
3.3323e-05
3.29937e-05
3.25535e-05
3.19673e-05
3.11903e-05
3.01661e-05
2.88249e-05
2.70827e-05
2.48415e-05
2.19923e-05
1.84212e-05
1.40216e-05
8.71296e-06
2.46755e-06
-4.65617e-06
-1.24776e-05
-2.0665e-05
-2.87278e-05
-3.60477e-05
-4.19603e-05
-4.58849e-05
-4.74709e-05
-4.67046e-05
-4.3921e-05
-3.97022e-05
-3.4709e-05
-2.95235e-05
-2.45641e-05
-2.00777e-05
-1.61776e-05
-1.28876e-05
-1.01777e-05
-7.98788e-06
-6.24496e-06
-4.87428e-06
-3.80645e-06
-2.98062e-06
-2.34539e-06
-1.85858e-06
-1.48624e-06
-1.20152e-06
-9.83491e-07
-8.15964e-07
-6.8656e-07
-5.85859e-07
-5.06737e-07
-4.43828e-07
-3.9311e-07
-3.51578e-07
-3.16989e-07
-2.87668e-07
-2.62356e-07
-2.4011e-07
-2.20226e-07
-2.02187e-07
-1.85611e-07
-1.70214e-07
-1.55781e-07
-1.42142e-07
-1.29166e-07
-1.16752e-07
-1.04821e-07
-9.33093e-08
-8.21578e-08
-7.13071e-08
-6.06932e-08
-5.02507e-08
-3.99162e-08
-2.96385e-08
-1.92962e-08
-9.4766e-09
3.41866e-05
3.41791e-05
3.41598e-05
3.41275e-05
3.40801e-05
3.4013e-05
3.39201e-05
3.37927e-05
3.36194e-05
3.33847e-05
3.3068e-05
3.26425e-05
3.20729e-05
3.13142e-05
3.03095e-05
2.89882e-05
2.72649e-05
2.50398e-05
2.22009e-05
1.86307e-05
1.42181e-05
8.87782e-06
2.57717e-06
-4.62886e-06
-1.25603e-05
-2.08812e-05
-2.90907e-05
-3.6553e-05
-4.2582e-05
-4.65753e-05
-4.81683e-05
-4.73466e-05
-4.4459e-05
-4.0111e-05
-3.49872e-05
-2.96865e-05
-2.46352e-05
-2.00814e-05
-1.61354e-05
-1.28171e-05
-1.00925e-05
-7.89767e-06
-6.15636e-06
-4.79142e-06
-3.7316e-06
-2.91475e-06
-2.28864e-06
-1.81051e-06
-1.44612e-06
-1.16846e-06
-9.56559e-07
-7.94257e-07
-6.69238e-07
-5.7217e-07
-4.96019e-07
-4.35512e-07
-3.86716e-07
-3.46706e-07
-3.13309e-07
-2.8491e-07
-2.60298e-07
-2.38575e-07
-2.19073e-07
-2.01303e-07
-1.84911e-07
-1.69633e-07
-1.55269e-07
-1.41665e-07
-1.28698e-07
-1.16276e-07
-1.04327e-07
-9.27901e-08
-8.16116e-08
-7.07338e-08
-6.00932e-08
-4.96249e-08
-3.92656e-08
-2.89674e-08
-1.86271e-08
-8.90143e-09
3.4191e-05
3.41838e-05
3.41652e-05
3.41342e-05
3.40884e-05
3.40236e-05
3.39334e-05
3.38095e-05
3.36404e-05
3.34107e-05
3.31e-05
3.26813e-05
3.21195e-05
3.13693e-05
3.03736e-05
2.90615e-05
2.73467e-05
2.51285e-05
2.22933e-05
1.87219e-05
1.43009e-05
8.94223e-06
2.61084e-06
-4.64012e-06
-1.2631e-05
-2.10238e-05
-2.93118e-05
-3.68504e-05
-4.29415e-05
-4.69716e-05
-4.85682e-05
-4.77168e-05
-4.47738e-05
-4.03571e-05
-3.51638e-05
-2.98018e-05
-2.47014e-05
-2.01109e-05
-1.61393e-05
-1.28046e-05
-1.00704e-05
-7.87114e-06
-6.12886e-06
-4.76515e-06
-3.70785e-06
-2.89414e-06
-2.27137e-06
-1.79648e-06
-1.43507e-06
-1.16006e-06
-9.50427e-07
-7.90032e-07
-6.6658e-07
-5.70773e-07
-4.95619e-07
-4.35884e-07
-3.87672e-07
-3.48093e-07
-3.15004e-07
-2.86812e-07
-2.62331e-07
-2.40676e-07
-2.21194e-07
-2.03409e-07
-1.86977e-07
-1.71642e-07
-1.57212e-07
-1.43536e-07
-1.30496e-07
-1.18001e-07
-1.05981e-07
-9.43783e-08
-8.31391e-08
-7.22058e-08
-6.15147e-08
-5.09996e-08
-4.05951e-08
-3.02469e-08
-1.98208e-08
-9.87388e-09
3.41847e-05
3.41775e-05
3.41588e-05
3.41275e-05
3.40814e-05
3.40161e-05
3.39254e-05
3.38008e-05
3.36309e-05
3.34003e-05
3.30885e-05
3.26686e-05
3.21053e-05
3.13536e-05
3.0356e-05
2.90417e-05
2.73246e-05
2.51035e-05
2.22651e-05
1.869e-05
1.42647e-05
8.90111e-06
2.56421e-06
-4.69287e-06
-1.26903e-05
-2.10899e-05
-2.93845e-05
-3.69288e-05
-4.30242e-05
-4.70566e-05
-4.86532e-05
-4.77999e-05
-4.48535e-05
-4.04326e-05
-3.52349e-05
-2.98684e-05
-2.47633e-05
-2.0168e-05
-1.61918e-05
-1.28524e-05
-1.01139e-05
-7.9104e-06
-6.16419e-06
-4.79684e-06
-3.73618e-06
-2.91941e-06
-2.29383e-06
-1.8164e-06
-1.45269e-06
-1.17559e-06
-9.64086e-07
-8.02001e-07
-6.77029e-07
-5.79858e-07
-5.03479e-07
-4.42646e-07
-3.93452e-07
-3.52993e-07
-3.19117e-07
-2.90223e-07
-2.65112e-07
-2.42893e-07
-2.22907e-07
-2.04672e-07
-1.87837e-07
-1.72146e-07
-1.57399e-07
-1.43445e-07
-1.3016e-07
-1.17453e-07
-1.05249e-07
-9.3489e-08
-8.21166e-08
-7.10724e-08
-6.02904e-08
-4.97022e-08
-3.92419e-08
-2.88592e-08
-1.84555e-08
-8.71718e-09
3.41679e-05
3.41603e-05
3.41405e-05
3.41074e-05
3.40589e-05
3.39905e-05
3.38959e-05
3.37665e-05
3.35909e-05
3.33534e-05
3.30336e-05
3.26044e-05
3.20306e-05
3.1267e-05
3.02568e-05
2.89291e-05
2.71985e-05
2.4965e-05
2.21164e-05
1.85351e-05
1.41098e-05
8.7549e-06
2.43781e-06
-4.78639e-06
-1.27373e-05
-2.10784e-05
-2.93072e-05
-3.67865e-05
-4.28282e-05
-4.68284e-05
-4.84216e-05
-4.75941e-05
-4.46965e-05
-4.03363e-05
-3.51993e-05
-2.98852e-05
-2.48201e-05
-2.02522e-05
-1.62922e-05
-1.29603e-05
-1.02225e-05
-8.01528e-06
-6.26236e-06
-4.88664e-06
-3.81691e-06
-2.99102e-06
-2.35669e-06
-1.87113e-06
-1.50004e-06
-1.21636e-06
-9.99063e-07
-8.31933e-07
-7.02606e-07
-6.017e-07
-5.22135e-07
-4.58598e-07
-4.07115e-07
-3.64725e-07
-3.29223e-07
-2.9896e-07
-2.72699e-07
-2.49513e-07
-2.28714e-07
-2.09795e-07
-1.92386e-07
-1.7621e-07
-1.61057e-07
-1.46761e-07
-1.33189e-07
-1.20241e-07
-1.07834e-07
-9.59051e-08
-8.43913e-08
-7.32296e-08
-6.23507e-08
-5.16826e-08
-4.11545e-08
-3.07052e-08
-2.01873e-08
-1.01338e-08
3.41409e-05
3.41324e-05
3.41106e-05
3.40744e-05
3.40215e-05
3.39474e-05
3.38457e-05
3.37075e-05
3.35212e-05
3.32712e-05
3.29365e-05
3.24902e-05
3.18971e-05
3.1112e-05
3.00786e-05
2.87268e-05
2.69725e-05
2.47174e-05
2.18522e-05
1.82628e-05
1.38421e-05
8.50951e-06
2.23713e-06
-4.91634e-06
-1.27696e-05
-2.09897e-05
-2.9084e-05
-3.64314e-05
-4.23645e-05
-4.63003e-05
-4.78868e-05
-4.71115e-05
-4.43119e-05
-4.00733e-05
-3.50587e-05
-2.98512e-05
-2.48691e-05
-2.03597e-05
-1.64366e-05
-1.31241e-05
-1.03926e-05
-8.1823e-06
-6.42019e-06
-5.03169e-06
-3.94744e-06
-3.10658e-06
-2.45769e-06
-1.95848e-06
-1.57493e-06
-1.28013e-06
-1.05302e-06
-8.77351e-07
-7.40657e-07
-6.33441e-07
-5.48501e-07
-4.80405e-07
-4.25068e-07
-3.79428e-07
-3.41188e-07
-3.0862e-07
-2.80419e-07
-2.55601e-07
-2.33428e-07
-2.13352e-07
-1.94967e-07
-1.77968e-07
-1.62121e-07
-1.4724e-07
-1.33177e-07
-1.19815e-07
-1.07062e-07
-9.4844e-08
-8.30911e-08
-7.17337e-08
-6.06971e-08
-4.99053e-08
-3.92851e-08
-2.87804e-08
-1.82922e-08
-8.5294e-09
3.41041e-05
3.40946e-05
3.40699e-05
3.40291e-05
3.397e-05
3.38878e-05
3.37758e-05
3.36251e-05
3.34237e-05
3.31556e-05
3.27998e-05
3.23292e-05
3.17085e-05
3.0893e-05
2.98268e-05
2.84411e-05
2.66537e-05
2.43692e-05
2.14821e-05
1.78834e-05
1.34726e-05
8.17577e-06
1.97192e-06
-5.07532e-06
-1.27837e-05
-2.0826e-05
-2.87238e-05
-3.58798e-05
-4.16562e-05
-4.54993e-05
-4.70766e-05
-4.63765e-05
-4.37179e-05
-3.96548e-05
-3.48177e-05
-2.97659e-05
-2.49063e-05
-2.04847e-05
-1.66183e-05
-1.33373e-05
-1.06179e-05
-8.40579e-06
-6.63276e-06
-5.22786e-06
-4.12442e-06
-3.26349e-06
-2.5949e-06
-2.07716e-06
-1.6767e-06
-1.36677e-06
-1.12638e-06
-9.39183e-07
-7.92596e-07
-6.76959e-07
-5.84905e-07
-5.10833e-07
-4.50501e-07
-4.00701e-07
-3.59009e-07
-3.23583e-07
-2.93022e-07
-2.66258e-07
-2.42484e-07
-2.21091e-07
-2.01625e-07
-1.83739e-07
-1.67164e-07
-1.51686e-07
-1.37136e-07
-1.23376e-07
-1.10299e-07
-9.78164e-08
-8.5848e-08
-7.43161e-08
-6.31392e-08
-5.22356e-08
-4.15251e-08
-3.09375e-08
-2.03152e-08
-1.01838e-08
3.40584e-05
3.40475e-05
3.40191e-05
3.39726e-05
3.39055e-05
3.3813e-05
3.36881e-05
3.35214e-05
3.33006e-05
3.30096e-05
3.2627e-05
3.21255e-05
3.147e-05
3.06161e-05
2.95088e-05
2.80808e-05
2.62525e-05
2.3932e-05
2.10192e-05
1.74114e-05
1.30162e-05
7.76835e-06
1.65513e-06
-5.25394e-06
-1.2776e-05
-2.05914e-05
-2.82406e-05
-3.51556e-05
-4.07359e-05
-4.44637e-05
-4.60296e-05
-4.54232e-05
-4.29406e-05
-3.90972e-05
-3.44835e-05
-2.96295e-05
-2.49273e-05
-2.06199e-05
-1.68287e-05
-1.35906e-05
-1.08894e-05
-8.67764e-06
-6.89282e-06
-5.46874e-06
-4.34223e-06
-3.45681e-06
-2.76398e-06
-2.22331e-06
-1.8018e-06
-1.47299e-06
-1.21595e-06
-1.01428e-06
-8.55237e-07
-7.28969e-07
-6.27905e-07
-5.46239e-07
-4.79533e-07
-4.24401e-07
-3.78257e-07
-3.39122e-07
-3.05474e-07
-2.76143e-07
-2.50234e-07
-2.27067e-07
-2.06123e-07
-1.87007e-07
-1.69408e-07
-1.53078e-07
-1.37819e-07
-1.2347e-07
-1.09904e-07
-9.70155e-08
-8.47114e-08
-7.29031e-08
-6.15015e-08
-5.04183e-08
-3.95701e-08
-2.88915e-08
-1.82766e-08
-8.44273e-09
3.40049e-05
3.39922e-05
3.39596e-05
3.39062e-05
3.38297e-05
3.37249e-05
3.35845e-05
3.33988e-05
3.31552e-05
3.2837e-05
3.24227e-05
3.18848e-05
3.11883e-05
3.02893e-05
2.91339e-05
2.76569e-05
2.57816e-05
2.34206e-05
2.04797e-05
1.68642e-05
1.24908e-05
7.30442e-06
1.30154e-06
-5.44202e-06
-1.27434e-05
-2.02926e-05
-2.76521e-05
-3.42883e-05
-3.96431e-05
-4.32388e-05
-4.47919e-05
-4.42928e-05
-4.20117e-05
-3.84211e-05
-3.40664e-05
-2.94439e-05
-2.4928e-05
-2.07575e-05
-1.7058e-05
-1.3874e-05
-1.11973e-05
-8.98847e-06
-7.19195e-06
-5.747e-06
-4.59465e-06
-3.6814e-06
-2.96079e-06
-2.39367e-06
-1.94781e-06
-1.59712e-06
-1.32079e-06
-1.10235e-06
-9.28887e-07
-7.90349e-07
-6.78921e-07
-5.8856e-07
-5.14599e-07
-4.53442e-07
-4.02312e-07
-3.59064e-07
-3.22034e-07
-2.89929e-07
-2.61749e-07
-2.36727e-07
-2.14271e-07
-1.93922e-07
-1.75321e-07
-1.58179e-07
-1.42263e-07
-1.27384e-07
-1.13391e-07
-1.00158e-07
-8.75774e-08
-7.55469e-08
-6.39678e-08
-5.27442e-08
-4.17843e-08
-3.10076e-08
-2.02499e-08
-1.005e-08
3.39447e-05
3.39301e-05
3.38926e-05
3.38314e-05
3.37442e-05
3.36255e-05
3.34676e-05
3.32605e-05
3.2991e-05
3.26422e-05
3.21922e-05
3.16134e-05
3.0871e-05
2.99218e-05
2.87131e-05
2.71821e-05
2.52555e-05
2.28511e-05
1.98816e-05
1.62609e-05
1.19158e-05
6.80222e-06
9.26373e-07
-5.62972e-06
-1.2684e-05
-1.99381e-05
-2.69791e-05
-3.33111e-05
-3.84211e-05
-4.18741e-05
-4.34133e-05
-4.30297e-05
-4.09663e-05
-3.76502e-05
-3.3579e-05
-2.92124e-05
-2.4905e-05
-2.089e-05
-1.72964e-05
-1.41762e-05
-1.15304e-05
-9.32779e-06
-7.52054e-06
-6.05408e-06
-4.87416e-06
-3.93071e-06
-3.17963e-06
-2.5833e-06
-2.11041e-06
-1.73534e-06
-1.43741e-06
-1.20014e-06
-1.01045e-06
-8.5805e-07
-7.34883e-07
-6.34639e-07
-5.52399e-07
-4.84334e-07
-4.27458e-07
-3.79441e-07
-3.38458e-07
-3.03083e-07
-2.722e-07
-2.44942e-07
-2.20636e-07
-1.98757e-07
-1.78888e-07
-1.60698e-07
-1.43913e-07
-1.28316e-07
-1.13728e-07
-1.00002e-07
-8.70115e-08
-7.46411e-08
-6.27812e-08
-5.13281e-08
-4.01849e-08
-2.92743e-08
-1.84774e-08
-8.50637e-09
3.38793e-05
3.38626e-05
3.38197e-05
3.375e-05
3.36511e-05
3.35172e-05
3.33403e-05
3.31098e-05
3.28122e-05
3.24302e-05
3.19415e-05
3.13185e-05
3.05267e-05
2.95236e-05
2.82581e-05
2.66699e-05
2.46898e-05
2.22411e-05
1.92438e-05
1.56212e-05
1.13109e-05
6.2798e-06
5.44104e-07
-5.80849e-06
-1.25978e-05
-1.95386e-05
-2.62443e-05
-3.22584e-05
-3.71141e-05
-4.04194e-05
-4.1944e-05
-4.16793e-05
-3.98407e-05
-3.68098e-05
-3.30359e-05
-2.89406e-05
-2.48568e-05
-2.1011e-05
-1.75345e-05
-1.44869e-05
-1.18777e-05
-9.68498e-06
-7.86876e-06
-6.38115e-06
-5.17303e-06
-4.19811e-06
-3.41493e-06
-2.78762e-06
-2.2859e-06
-1.88472e-06
-1.56364e-06
-1.30614e-06
-1.09902e-06
-9.31742e-07
-7.95987e-07
-6.85168e-07
-5.94098e-07
-5.18695e-07
-4.55748e-07
-4.02726e-07
-3.57631e-07
-3.18886e-07
-2.85249e-07
-2.55746e-07
-2.29613e-07
-2.06249e-07
-1.85178e-07
-1.66014e-07
-1.48446e-07
-1.32219e-07
-1.17125e-07
-1.02994e-07
-8.96794e-08
-7.70492e-08
-6.4982e-08
-5.33643e-08
-4.20902e-08
-3.10678e-08
-2.01284e-08
-9.83751e-09
3.38102e-05
3.37913e-05
3.37427e-05
3.3664e-05
3.35527e-05
3.34028e-05
3.32057e-05
3.29505e-05
3.26233e-05
3.22062e-05
3.1677e-05
3.10077e-05
3.01643e-05
2.91053e-05
2.77812e-05
2.61346e-05
2.41005e-05
2.16081e-05
1.85851e-05
1.49646e-05
1.06948e-05
5.75394e-06
1.67575e-07
-5.97166e-06
-1.24866e-05
-1.9106e-05
-2.5471e-05
-3.11642e-05
-3.57648e-05
-3.89223e-05
-4.0432e-05
-4.02851e-05
-3.86707e-05
-3.5926e-05
-3.24531e-05
-2.86355e-05
-2.47836e-05
-2.11157e-05
-1.77644e-05
-1.4796e-05
-1.22287e-05
-1.00495e-05
-8.22668e-06
-6.71909e-06
-5.4831e-06
-4.47643e-06
-3.66045e-06
-3.00121e-06
-2.46961e-06
-2.04125e-06
-1.69596e-06
-1.41726e-06
-1.1918e-06
-1.00884e-06
-8.59777e-07
-7.37747e-07
-6.37287e-07
-5.54055e-07
-4.84604e-07
-4.26194e-07
-3.76646e-07
-3.34227e-07
-2.97562e-07
-2.65565e-07
-2.37377e-07
-2.12321e-07