# Moment      
# CofR        : (0.000000e+00 0.000000e+00 0.000000e+00)
#
# Time        	total_x total_y total_z	pressure_x pressure_y pressure_z	viscous_x viscous_y viscous_z
1              -2.339982e-05 1.418116e-03 3.402955e-02 -2.342460e-05 1.429767e-03 3.362122e-02 2.478680e-08 -1.165025e-05 4.083304e-04
2              -1.969834e-05 2.351322e-04 4.924252e-02 -1.972738e-05 2.591695e-04 4.883345e-02 2.904146e-08 -2.403739e-05 4.090705e-04
3              -3.307233e-05 -1.125046e-03 4.960478e-02 -3.295304e-05 -1.088259e-03 4.920340e-02 -1.192910e-07 -3.678747e-05 4.013741e-04
4              -4.821168e-05 -2.056363e-03 4.177883e-02 -4.793230e-05 -2.010661e-03 4.137975e-02 -2.793738e-07 -4.570210e-05 3.990852e-04
5              -5.221380e-05 -2.503419e-03 3.067808e-02 -5.178393e-05 -2.454696e-03 3.027095e-02 -4.298660e-07 -4.872286e-05 4.071245e-04
6              -3.846180e-05 -2.517993e-03 1.993941e-02 -3.788268e-05 -2.470461e-03 1.951438e-02 -5.791231e-07 -4.753189e-05 4.250317e-04
7              -8.524500e-06 -2.179103e-03 1.175339e-02 -7.847036e-06 -2.136751e-03 1.130579e-02 -6.774632e-07 -4.235237e-05 4.475996e-04
8              2.880192e-05 -1.492037e-03 7.075675e-03 2.951582e-05 -1.457431e-03 6.605413e-03 -7.138936e-07 -3.460649e-05 4.702621e-04
9              6.845160e-05 -9.258492e-04 5.336017e-03 6.916323e-05 -8.973445e-04 4.846296e-03 -7.116373e-07 -2.850474e-05 4.897209e-04
10             9.137644e-05 -7.298718e-04 5.664278e-03 9.202231e-05 -7.065504e-04 5.157896e-03 -6.458678e-07 -2.332138e-05 5.063818e-04
11             8.711330e-05 -8.948734e-04 6.952594e-03 8.764596e-05 -8.756854e-04 6.433315e-03 -5.326540e-07 -1.918799e-05 5.192793e-04
12             5.273165e-05 -1.373459e-03 8.361575e-03 5.314468e-05 -1.356357e-03 7.832992e-03 -4.130277e-07 -1.710137e-05 5.285837e-04
13             -4.285348e-06 -2.043251e-03 9.402811e-03 -3.974149e-06 -2.026095e-03 8.866636e-03 -3.111988e-07 -1.715608e-05 5.361748e-04
14             -6.844933e-05 -2.725753e-03 9.914968e-03 -6.821723e-05 -2.706927e-03 9.372051e-03 -2.320981e-07 -1.882598e-05 5.429171e-04
15             -1.220061e-04 -3.249149e-03 9.979692e-03 -1.218288e-04 -3.228172e-03 9.430057e-03 -1.772236e-07 -2.097731e-05 5.496348e-04
16             -1.534560e-04 -3.512791e-03 9.752867e-03 -1.532983e-04 -3.488673e-03 9.196127e-03 -1.577035e-07 -2.411813e-05 5.567406e-04
17             -1.601633e-04 -3.542598e-03 9.414165e-03 -1.600068e-04 -3.515621e-03 8.849609e-03 -1.564892e-07 -2.697707e-05 5.645561e-04
18             -1.414868e-04 -3.370745e-03 9.113567e-03 -1.413195e-04 -3.341839e-03 8.541524e-03 -1.672802e-07 -2.890575e-05 5.720438e-04
19             -1.024756e-04 -3.037313e-03 8.935711e-03 -1.022947e-04 -3.007572e-03 8.357063e-03 -1.808357e-07 -2.974054e-05 5.786484e-04
20             -5.326152e-05 -2.600422e-03 8.882592e-03 -5.306507e-05 -2.570412e-03 8.298505e-03 -1.964514e-07 -3.000940e-05 5.840869e-04
21             -5.663549e-06 -2.130371e-03 8.900719e-03 -5.454271e-06 -2.100524e-03 8.312174e-03 -2.092787e-07 -2.984671e-05 5.885450e-04
22             3.097236e-05 -1.690472e-03 8.922139e-03 3.118823e-05 -1.661085e-03 8.329785e-03 -2.158761e-07 -2.938701e-05 5.923541e-04
23             5.258317e-05 -1.309952e-03 8.893948e-03 5.279866e-05 -1.281158e-03 8.298278e-03 -2.154858e-07 -2.879447e-05 5.956691e-04
24             5.819024e-05 -1.002132e-03 8.778574e-03 5.839596e-05 -9.740057e-04 8.179656e-03 -2.057199e-07 -2.812614e-05 5.989186e-04
25             5.018892e-05 -7.829022e-04 8.564003e-03 5.036902e-05 -7.552191e-04 7.962287e-03 -1.800978e-07 -2.768315e-05 6.017162e-04
26             3.320481e-05 -6.608832e-04 8.280500e-03 3.335973e-05 -6.336718e-04 7.675716e-03 -1.549196e-07 -2.721146e-05 6.047846e-04
27             1.174295e-05 -6.323900e-04 7.962580e-03 1.187404e-05 -6.053091e-04 7.354419e-03 -1.310914e-07 -2.708083e-05 6.081605e-04
28             -9.928556e-06 -6.863530e-04 7.646198e-03 -9.825427e-06 -6.596791e-04 7.034557e-03 -1.031281e-07 -2.667387e-05 6.116401e-04
29             -2.860632e-05 -8.031723e-04 7.358354e-03 -2.852469e-05 -7.766131e-04 6.743192e-03 -8.162568e-08 -2.655916e-05 6.151621e-04
30             -4.210364e-05 -9.612508e-04 7.119609e-03 -4.204142e-05 -9.349517e-04 6.501145e-03 -6.221799e-08 -2.629911e-05 6.184640e-04
31             -4.925582e-05 -1.132835e-03 6.942042e-03 -4.920541e-05 -1.106620e-03 6.320568e-03 -5.040947e-08 -2.621543e-05 6.214738e-04
32             -5.011585e-05 -1.290805e-03 6.826534e-03 -5.007292e-05 -1.264752e-03 6.202513e-03 -4.292709e-08 -2.605287e-05 6.240213e-04
33             -4.580133e-05 -1.412884e-03 6.763008e-03 -4.576032e-05 -1.386956e-03 6.136902e-03 -4.101099e-08 -2.592713e-05 6.261057e-04
34             -3.807090e-05 -1.485076e-03 6.734543e-03 -3.802872e-05 -1.459315e-03 6.106818e-03 -4.217274e-08 -2.576033e-05 6.277250e-04
35             -2.888452e-05 -1.501180e-03 6.722940e-03 -2.883909e-05 -1.475609e-03 6.093983e-03 -4.542800e-08 -2.557127e-05 6.289566e-04
36             -2.017221e-05 -1.465960e-03 6.712122e-03 -2.012194e-05 -1.440609e-03 6.082252e-03 -5.027116e-08 -2.535087e-05 6.298691e-04
37             -1.341835e-05 -1.396639e-03 6.689589e-03 -1.336433e-05 -1.371515e-03 6.059042e-03 -5.401754e-08 -2.512457e-05 6.305474e-04
38             -9.266269e-06 -1.312420e-03 6.648336e-03 -9.210304e-06 -1.287524e-03 6.017271e-03 -5.596544e-08 -2.489608e-05 6.310647e-04
39             -7.681556e-06 -1.227898e-03 6.587317e-03 -7.625256e-06 -1.203230e-03 5.955836e-03 -5.630001e-08 -2.466869e-05 6.314810e-04
40             -8.229942e-06 -1.153264e-03 6.509832e-03 -8.174896e-06 -1.128818e-03 5.878002e-03 -5.504585e-08 -2.444614e-05 6.318298e-04
41             -1.027626e-05 -1.095720e-03 6.421990e-03 -1.022372e-05 -1.071485e-03 5.789869e-03 -5.253083e-08 -2.423554e-05 6.321209e-04
42             -1.312141e-05 -1.058713e-03 6.330469e-03 -1.307218e-05 -1.034675e-03 5.698125e-03 -4.922361e-08 -2.403861e-05 6.323433e-04
43             -1.612891e-05 -1.042496e-03 6.241128e-03 -1.608322e-05 -1.018640e-03 5.608658e-03 -4.569175e-08 -2.385592e-05 6.324697e-04
44             -1.877643e-05 -1.044701e-03 6.159116e-03 -1.873409e-05 -1.021016e-03 5.526644e-03 -4.233781e-08 -2.368503e-05 6.324715e-04
45             -2.069708e-05 -1.059798e-03 6.088639e-03 -2.065766e-05 -1.036277e-03 5.456314e-03 -3.942256e-08 -2.352145e-05 6.323250e-04
46             -2.175383e-05 -1.080405e-03 6.031296e-03 -2.171659e-05 -1.057042e-03 5.399289e-03 -3.724161e-08 -2.336237e-05 6.320075e-04
47             -2.203641e-05 -1.100157e-03 5.985418e-03 -2.200058e-05 -1.076952e-03 5.353909e-03 -3.582920e-08 -2.320525e-05 6.315083e-04
48             -2.176273e-05 -1.115226e-03 5.947335e-03 -2.172791e-05 -1.092177e-03 5.316508e-03 -3.481972e-08 -2.304950e-05 6.308272e-04
49             -2.117633e-05 -1.123970e-03 5.913117e-03 -2.114220e-05 -1.101070e-03 5.283148e-03 -3.412815e-08 -2.290002e-05 6.299693e-04
50             -2.049068e-05 -1.126151e-03 5.879682e-03 -2.045699e-05 -1.103389e-03 5.250733e-03 -3.368227e-08 -2.276215e-05 6.289490e-04
51             -1.987263e-05 -1.122514e-03 5.845396e-03 -1.983936e-05 -1.099875e-03 5.217612e-03 -3.327522e-08 -2.263845e-05 6.277843e-04
52             -1.943886e-05 -1.114735e-03 5.810204e-03 -1.940607e-05 -1.092201e-03 5.183706e-03 -3.279171e-08 -2.253413e-05 6.264983e-04
53             -1.924809e-05 -1.105248e-03 5.775379e-03 -1.921602e-05 -1.082799e-03 5.150268e-03 -3.207163e-08 -2.244843e-05 6.251102e-04
54             -1.928828e-05 -1.096391e-03 5.742122e-03 -1.925713e-05 -1.074008e-03 5.118480e-03 -3.115100e-08 -2.238345e-05 6.236416e-04
55             -1.949703e-05 -1.089518e-03 5.710470e-03 -1.946701e-05 -1.067182e-03 5.088362e-03 -3.002557e-08 -2.233588e-05 6.221081e-04
56             -1.980368e-05 -1.085315e-03 5.680394e-03 -1.977476e-05 -1.062991e-03 5.060042e-03 -2.892493e-08 -2.232468e-05 6.203524e-04
57             -2.014515e-05 -1.083836e-03 5.652130e-03 -2.011750e-05 -1.061505e-03 5.033560e-03 -2.765370e-08 -2.233138e-05 6.185700e-04
58             -2.047813e-05 -1.084880e-03 5.625375e-03 -2.045189e-05 -1.062528e-03 5.008611e-03 -2.623846e-08 -2.235161e-05 6.167639e-04
59             -2.077524e-05 -1.088129e-03 5.600121e-03 -2.075052e-05 -1.065748e-03 4.985181e-03 -2.472231e-08 -2.238094e-05 6.149391e-04
60             -2.101438e-05 -1.092924e-03 5.577323e-03 -2.099123e-05 -1.070506e-03 4.964225e-03 -2.315243e-08 -2.241777e-05 6.130985e-04
61             -2.118242e-05 -1.098110e-03 5.558323e-03 -2.116090e-05 -1.075654e-03 4.947071e-03 -2.151254e-08 -2.245674e-05 6.112520e-04
62             -2.128900e-05 -1.102824e-03 5.543153e-03 -2.126923e-05 -1.080330e-03 4.933748e-03 -1.977132e-08 -2.249383e-05 6.094044e-04
63             -2.135608e-05 -1.106822e-03 5.531013e-03 -2.133817e-05 -1.084292e-03 4.923453e-03 -1.790932e-08 -2.252979e-05 6.075599e-04
64             -2.140400e-05 -1.110189e-03 5.521153e-03 -2.138811e-05 -1.087627e-03 4.915430e-03 -1.589769e-08 -2.256203e-05 6.057227e-04
65             -2.144646e-05 -1.113055e-03 5.513258e-03 -2.143273e-05 -1.090462e-03 4.909361e-03 -1.372545e-08 -2.259252e-05 6.038966e-04
66             -2.149141e-05 -1.115566e-03 5.507304e-03 -2.148001e-05 -1.092944e-03 4.905219e-03 -1.139452e-08 -2.262192e-05 6.020851e-04
67             -2.154204e-05 -1.117899e-03 5.503464e-03 -2.153315e-05 -1.095248e-03 4.903172e-03 -8.893751e-09 -2.265124e-05 6.002922e-04
68             -2.159881e-05 -1.120242e-03 5.502040e-03 -2.159259e-05 -1.097562e-03 4.903518e-03 -6.222970e-09 -2.268021e-05 5.985216e-04
69             -2.166311e-05 -1.122713e-03 5.502813e-03 -2.165972e-05 -1.100004e-03 4.906037e-03 -3.395290e-09 -2.270853e-05 5.967767e-04
70             -2.173440e-05 -1.125364e-03 5.505054e-03 -2.173399e-05 -1.102628e-03 4.909993e-03 -4.084561e-10 -2.273600e-05 5.950612e-04
71             -2.180765e-05 -1.128176e-03 5.508316e-03 -2.181037e-05 -1.105413e-03 4.914938e-03 2.717156e-09 -2.276222e-05 5.933773e-04
72             -2.187721e-05 -1.131129e-03 5.512693e-03 -2.188316e-05 -1.108343e-03 4.920965e-03 5.954585e-09 -2.278608e-05 5.917273e-04
73             -2.193938e-05 -1.134222e-03 5.518596e-03 -2.194865e-05 -1.111414e-03 4.928485e-03 9.263874e-09 -2.280745e-05 5.901113e-04
74             -2.199275e-05 -1.137435e-03 5.526357e-03 -2.200538e-05 -1.114607e-03 4.937828e-03 1.262490e-08 -2.282732e-05 5.885298e-04
75             -2.203751e-05 -1.140723e-03 5.536126e-03 -2.205352e-05 -1.117877e-03 4.949144e-03 1.601197e-08 -2.284629e-05 5.869823e-04
76             -2.207491e-05 -1.144058e-03 5.547992e-03 -2.209431e-05 -1.121193e-03 4.962524e-03 1.940071e-08 -2.286462e-05 5.854679e-04
77             -2.210635e-05 -1.147421e-03 5.562106e-03 -2.212911e-05 -1.124538e-03 4.978120e-03 2.275518e-08 -2.288270e-05 5.839861e-04
78             -2.213328e-05 -1.150762e-03 5.578282e-03 -2.215932e-05 -1.127860e-03 4.995744e-03 2.604105e-08 -2.290200e-05 5.825379e-04
79             -2.215755e-05 -1.153949e-03 5.595284e-03 -2.218688e-05 -1.131029e-03 5.014156e-03 2.933775e-08 -2.291937e-05 5.811280e-04
80             -2.218049e-05 -1.156877e-03 5.611783e-03 -2.221312e-05 -1.133943e-03 5.032027e-03 3.262834e-08 -2.293481e-05 5.797565e-04
81             -2.220212e-05 -1.159537e-03 5.627347e-03 -2.223800e-05 -1.136588e-03 5.048924e-03 3.588528e-08 -2.294899e-05 5.784229e-04
82             -2.222184e-05 -1.161987e-03 5.642383e-03 -2.226092e-05 -1.139025e-03 5.065256e-03 3.908773e-08 -2.296211e-05 5.771272e-04
83             -2.223918e-05 -1.164300e-03 5.657549e-03 -2.228139e-05 -1.141324e-03 5.081680e-03 4.220405e-08 -2.297549e-05 5.758693e-04
84             -2.225420e-05 -1.166526e-03 5.673304e-03 -2.229941e-05 -1.143536e-03 5.098654e-03 4.521220e-08 -2.299027e-05 5.746499e-04
85             -2.226748e-05 -1.168698e-03 5.689817e-03 -2.231557e-05 -1.145691e-03 5.116348e-03 4.809027e-08 -2.300703e-05 5.734694e-04
86             -2.227996e-05 -1.170839e-03 5.707144e-03 -2.233078e-05 -1.147813e-03 5.134816e-03 5.081342e-08 -2.302645e-05 5.723283e-04
87             -2.229266e-05 -1.172968e-03 5.725410e-03 -2.234600e-05 -1.149918e-03 5.154183e-03 5.334259e-08 -2.304990e-05 5.712265e-04
88             -2.230685e-05 -1.175094e-03 5.744414e-03 -2.236305e-05 -1.152038e-03 5.174229e-03 5.620369e-08 -2.305666e-05 5.701857e-04
89             -2.232508e-05 -1.177251e-03 5.762996e-03 -2.238392e-05 -1.154184e-03 5.193804e-03 5.884165e-08 -2.306748e-05 5.691916e-04
90             -2.234890e-05 -1.179459e-03 5.779946e-03 -2.241028e-05 -1.156381e-03 5.211698e-03 6.137897e-08 -2.307774e-05 5.682474e-04
91             -2.237862e-05 -1.181730e-03 5.794925e-03 -2.244238e-05 -1.158640e-03 5.227574e-03 6.375612e-08 -2.308954e-05 5.673511e-04
92             -2.241351e-05 -1.184051e-03 5.808434e-03 -2.247951e-05 -1.160949e-03 5.241930e-03 6.599917e-08 -2.310179e-05 5.665040e-04
93             -2.245271e-05 -1.186400e-03 5.821233e-03 -2.252080e-05 -1.163285e-03 5.255527e-03 6.808696e-08 -2.311546e-05 5.657062e-04
94             -2.249558e-05 -1.188752e-03 5.833871e-03 -2.256560e-05 -1.165621e-03 5.268912e-03 7.002352e-08 -2.313037e-05 5.649587e-04
95             -2.254175e-05 -1.191091e-03 5.846617e-03 -2.261356e-05 -1.167944e-03 5.282355e-03 7.180403e-08 -2.314667e-05 5.642618e-04
96             -2.259107e-05 -1.193413e-03 5.859586e-03 -2.266450e-05 -1.170248e-03 5.295970e-03 7.342831e-08 -2.316440e-05 5.636159e-04
97             -2.264350e-05 -1.195720e-03 5.872888e-03 -2.271840e-05 -1.172536e-03 5.309867e-03 7.489678e-08 -2.318355e-05 5.630210e-04
98             -2.269912e-05 -1.198027e-03 5.886459e-03 -2.277534e-05 -1.174823e-03 5.323982e-03 7.621328e-08 -2.320392e-05 5.624769e-04
99             -2.275789e-05 -1.200364e-03 5.899689e-03 -2.283528e-05 -1.177139e-03 5.337706e-03 7.738317e-08 -2.322530e-05 5.619827e-04
100            -2.281928e-05 -1.202748e-03 5.911795e-03 -2.289770e-05 -1.179501e-03 5.350254e-03 7.842064e-08 -2.324630e-05 5.615410e-04
101            -2.288230e-05 -1.205155e-03 5.922511e-03 -2.296163e-05 -1.181887e-03 5.361367e-03 7.932820e-08 -2.326779e-05 5.611449e-04
102            -2.295085e-05 -1.207626e-03 5.934556e-03 -2.303096e-05 -1.184336e-03 5.373766e-03 8.010602e-08 -2.328962e-05 5.607901e-04
103            -2.302210e-05 -1.210082e-03 5.947150e-03 -2.310288e-05 -1.186771e-03 5.386674e-03 8.078309e-08 -2.331146e-05 5.604762e-04
104            -2.308918e-05 -1.212400e-03 5.957499e-03 -2.317056e-05 -1.189067e-03 5.397296e-03 8.137992e-08 -2.333278e-05 5.602030e-04
105            -2.315216e-05 -1.214567e-03 5.966101e-03 -2.323405e-05 -1.191213e-03 5.406133e-03 8.188760e-08 -2.335337e-05 5.599687e-04
106            -2.321134e-05 -1.216573e-03 5.973523e-03 -2.329366e-05 -1.193200e-03 5.413751e-03 8.231251e-08 -2.337321e-05 5.597721e-04
107            -2.326719e-05 -1.218419e-03 5.980310e-03 -2.334985e-05 -1.195027e-03 5.420699e-03 8.266413e-08 -2.339212e-05 5.596112e-04
108            -2.332020e-05 -1.220111e-03 5.986917e-03 -2.340315e-05 -1.196701e-03 5.427433e-03 8.295173e-08 -2.340996e-05 5.594836e-04
109            -2.337072e-05 -1.221661e-03 5.993622e-03 -2.345390e-05 -1.198235e-03 5.434235e-03 8.318615e-08 -2.342654e-05 5.593866e-04
110            -2.341866e-05 -1.223082e-03 6.000495e-03 -2.350204e-05 -1.199640e-03 5.441178e-03 8.337807e-08 -2.344172e-05 5.593170e-04
111            -2.346366e-05 -1.224378e-03 6.007451e-03 -2.354720e-05 -1.200923e-03 5.448179e-03 8.353870e-08 -2.345529e-05 5.592715e-04
112            -2.350533e-05 -1.225556e-03 6.014366e-03 -2.358901e-05 -1.202088e-03 5.455119e-03 8.367781e-08 -2.346715e-05 5.592471e-04
113            -2.354356e-05 -1.226619e-03 6.021145e-03 -2.362737e-05 -1.203142e-03 5.461904e-03 8.380375e-08 -2.347718e-05 5.592407e-04
114            -2.357842e-05 -1.227575e-03 6.027712e-03 -2.366234e-05 -1.204089e-03 5.468462e-03 8.392261e-08 -2.348539e-05 5.592500e-04
115            -2.361002e-05 -1.228430e-03 6.033999e-03 -2.369406e-05 -1.204939e-03 5.474727e-03 8.403901e-08 -2.349181e-05 5.592724e-04
116            -2.363269e-05 -1.229135e-03 6.038406e-03 -2.371684e-05 -1.205638e-03 5.479103e-03 8.415011e-08 -2.349657e-05 5.593033e-04
117            -2.366044e-05 -1.229857e-03 6.044331e-03 -2.374472e-05 -1.206357e-03 5.484986e-03 8.428255e-08 -2.349934e-05 5.593452e-04
118            -2.368004e-05 -1.230443e-03 6.048522e-03 -2.376444e-05 -1.206942e-03 5.489129e-03 8.439621e-08 -2.350112e-05 5.593936e-04
119            -2.370355e-05 -1.231034e-03 6.053817e-03 -2.378808e-05 -1.207534e-03 5.494367e-03 8.453870e-08 -2.350085e-05 5.594501e-04
120            -2.372374e-05 -1.231538e-03 6.058629e-03 -2.380840e-05 -1.208038e-03 5.499117e-03 8.466062e-08 -2.350027e-05 5.595118e-04
121            -2.374069e-05 -1.231958e-03 6.063000e-03 -2.382549e-05 -1.208460e-03 5.503423e-03 8.479762e-08 -2.349792e-05 5.595769e-04
122            -2.375465e-05 -1.232302e-03 6.066985e-03 -2.383958e-05 -1.208807e-03 5.507342e-03 8.493130e-08 -2.349509e-05 5.596431e-04
123            -2.376605e-05 -1.232582e-03 6.070629e-03 -2.385113e-05 -1.209091e-03 5.510919e-03 8.507843e-08 -2.349072e-05 5.597102e-04
124            -2.377540e-05 -1.232810e-03 6.073968e-03 -2.386063e-05 -1.209324e-03 5.514191e-03 8.522317e-08 -2.348599e-05 5.597767e-04
125            -2.378333e-05 -1.233008e-03 6.077022e-03 -2.386871e-05 -1.209528e-03 5.517179e-03 8.537505e-08 -2.348025e-05 5.598423e-04
126            -2.379032e-05 -1.233192e-03 6.079804e-03 -2.387584e-05 -1.209717e-03 5.519898e-03 8.552152e-08 -2.347449e-05 5.599062e-04
127            -2.379678e-05 -1.233376e-03 6.082318e-03 -2.388245e-05 -1.209907e-03 5.522350e-03 8.567012e-08 -2.346819e-05 5.599683e-04
128            -2.380291e-05 -1.233567e-03 6.084569e-03 -2.388872e-05 -1.210105e-03 5.524541e-03 8.581106e-08 -2.346216e-05 5.600279e-04
129            -2.380886e-05 -1.233772e-03 6.086561e-03 -2.389481e-05 -1.210316e-03 5.526476e-03 8.595086e-08 -2.345593e-05 5.600851e-04
130            -2.381468e-05 -1.233990e-03 6.088307e-03 -2.390076e-05 -1.210540e-03 5.528167e-03 8.608162e-08 -2.345015e-05 5.601394e-04
131            -2.382040e-05 -1.234221e-03 6.089817e-03 -2.390661e-05 -1.210777e-03 5.529626e-03 8.620880e-08 -2.344446e-05 5.601912e-04
132            -2.382597e-05 -1.234462e-03 6.091104e-03 -2.391230e-05 -1.211023e-03 5.530864e-03 8.632691e-08 -2.343932e-05 5.602399e-04
133            -2.383126e-05 -1.234700e-03 6.092205e-03 -2.391770e-05 -1.211266e-03 5.531919e-03 8.644081e-08 -2.343438e-05 5.602859e-04
134            -2.383605e-05 -1.234918e-03 6.093175e-03 -2.392259e-05 -1.211488e-03 5.532846e-03 8.654620e-08 -2.343002e-05 5.603292e-04
135            -2.384033e-05 -1.235112e-03 6.094052e-03 -2.392698e-05 -1.211687e-03 5.533682e-03 8.664771e-08 -2.342590e-05 5.603700e-04
136            -2.384424e-05 -1.235290e-03 6.094848e-03 -2.393098e-05 -1.211868e-03 5.534440e-03 8.674230e-08 -2.342230e-05 5.604083e-04
137            -2.384794e-05 -1.235463e-03 6.095560e-03 -2.393478e-05 -1.212044e-03 5.535116e-03 8.683386e-08 -2.341892e-05 5.604447e-04
138            -2.385155e-05 -1.235640e-03 6.096183e-03 -2.393847e-05 -1.212224e-03 5.535704e-03 8.692040e-08 -2.341595e-05 5.604789e-04
139            -2.385512e-05 -1.235828e-03 6.096718e-03 -2.394213e-05 -1.212414e-03 5.536206e-03 8.700580e-08 -2.341309e-05 5.605113e-04
140            -2.385868e-05 -1.236027e-03 6.097171e-03 -2.394577e-05 -1.212617e-03 5.536629e-03 8.708868e-08 -2.341048e-05 5.605420e-04
141            -2.386224e-05 -1.236243e-03 6.097549e-03 -2.394941e-05 -1.212835e-03 5.536978e-03 8.717261e-08 -2.340782e-05 5.605712e-04
