/*--------------------------------*- C++ -*----------------------------------*\
| =========                 |                                                 |
| \\      /  F ield         | OpenFOAM: The Open Source CFD Toolbox           |
|  \\    /   O peration     | Version:  2512                                  |
|   \\  /    A nd           | Website:  www.openfoam.com                      |
|    \\/     M anipulation  |                                                 |
\*---------------------------------------------------------------------------*/
FoamFile
{
    version     2.0;
    format      ascii;
    arch        "LSB;label=32;scalar=64";
    class       volScalarField;
    location    "135";
    object      p;
}
// * * * * * * * * * * * * * * * * * * * * * * * * * * * * * * * * * * * * * //

dimensions      [0 2 -2 0 0 0 0];

internalField   nonuniform List<scalar> 
220594
(
2.16023e-05
2.15747e-05
2.15041e-05
2.13908e-05
2.12331e-05
2.10248e-05
2.07571e-05
2.04194e-05
1.99992e-05
1.94816e-05
1.88492e-05
1.80822e-05
1.71589e-05
1.60558e-05
1.47486e-05
1.32135e-05
1.14291e-05
9.37839e-06
7.05224e-06
4.45266e-06
1.59662e-06
-1.48028e-06
-4.72089e-06
-8.04505e-06
-1.13507e-05
-1.45181e-05
-1.7418e-05
-1.99226e-05
-2.19197e-05
-2.33253e-05
-2.40954e-05
-2.42309e-05
-2.37773e-05
-2.28165e-05
-2.14547e-05
-1.98082e-05
-1.79903e-05
-1.61019e-05
-1.42258e-05
-1.24251e-05
-1.07434e-05
-9.2078e-06
-7.83143e-06
-6.61689e-06
-5.55921e-06
-4.6484e-06
-3.87155e-06
-3.21432e-06
-2.66216e-06
-2.20099e-06
-1.81773e-06
-1.50055e-06
-1.23895e-06
-1.02377e-06
-8.47157e-07
-7.02403e-07
-5.83876e-07
-4.8687e-07
-4.07474e-07
-3.42454e-07
-2.89147e-07
-2.45363e-07
-2.09313e-07
-1.79533e-07
-1.54829e-07
-1.34223e-07
-1.16909e-07
-1.0222e-07
-8.96054e-08
-7.86108e-08
-6.8868e-08
-6.00836e-08
-5.20289e-08
-4.45305e-08
-3.74604e-08
-3.07287e-08
-2.42754e-08
-1.80845e-08
-1.20585e-08
-7.49542e-09
2.16103e-05
2.1583e-05
2.15131e-05
2.14009e-05
2.12446e-05
2.10382e-05
2.07728e-05
2.04379e-05
2.00211e-05
1.95073e-05
1.88792e-05
1.81171e-05
1.71989e-05
1.61011e-05
1.47991e-05
1.32687e-05
1.14878e-05
9.43896e-06
7.1121e-06
4.50843e-06
1.64416e-06
-1.44574e-06
-4.70434e-06
-8.0512e-06
-1.13832e-05
-1.4579e-05
-1.75066e-05
-2.00355e-05
-2.20505e-05
-2.34654e-05
-2.4235e-05
-2.43606e-05
-2.38893e-05
-2.29056e-05
-2.15187e-05
-1.98476e-05
-1.80077e-05
-1.61009e-05
-1.42108e-05
-1.24002e-05
-1.07123e-05
-9.1735e-06
-7.79632e-06
-6.58268e-06
-5.52706e-06
-4.619e-06
-3.84523e-06
-3.19117e-06
-2.64209e-06
-2.1838e-06
-1.80315e-06
-1.4883e-06
-1.22872e-06
-1.0153e-06
-8.40166e-07
-6.96665e-07
-5.79188e-07
-4.83053e-07
-4.04377e-07
-3.3995e-07
-2.87125e-07
-2.43735e-07
-2.08001e-07
-1.78475e-07
-1.53975e-07
-1.33533e-07
-1.1635e-07
-1.01767e-07
-8.92368e-08
-7.83105e-08
-6.86231e-08
-5.98849e-08
-5.18702e-08
-4.44081e-08
-3.73723e-08
-3.06736e-08
-2.42514e-08
-1.80847e-08
-1.2076e-08
-7.44992e-09
2.16261e-05
2.15993e-05
2.15307e-05
2.14206e-05
2.12673e-05
2.10645e-05
2.08037e-05
2.04744e-05
2.00642e-05
1.9558e-05
1.89386e-05
1.8186e-05
1.72781e-05
1.61909e-05
1.48992e-05
1.33781e-05
1.16043e-05
9.55916e-06
7.23103e-06
4.61945e-06
1.73903e-06
-1.37648e-06
-4.67068e-06
-8.06255e-06
-1.14471e-05
-1.46992e-05
-1.76822e-05
-2.02596e-05
-2.23105e-05
-2.37441e-05
-2.45129e-05
-2.46187e-05
-2.4112e-05
-2.30826e-05
-2.16456e-05
-1.99255e-05
-1.80417e-05
-1.60987e-05
-1.41808e-05
-1.23505e-05
-1.06504e-05
-9.10538e-06
-7.72665e-06
-6.51484e-06
-5.46331e-06
-4.56072e-06
-3.79307e-06
-3.14531e-06
-2.60232e-06
-2.14973e-06
-1.77427e-06
-1.46401e-06
-1.20846e-06
-9.9849e-07
-8.26305e-07
-6.85287e-07
-5.69885e-07
-4.75476e-07
-3.98227e-07
-3.34971e-07
-2.83106e-07
-2.40493e-07
-2.05387e-07
-1.76367e-07
-1.52273e-07
-1.32155e-07
-1.15233e-07
-1.00858e-07
-8.8494e-08
-7.76995e-08
-6.81176e-08
-5.94653e-08
-5.15233e-08
-4.41258e-08
-3.71501e-08
-3.05087e-08
-2.41401e-08
-1.80188e-08
-1.20402e-08
-7.38419e-09
2.16494e-05
2.16233e-05
2.15567e-05
2.14497e-05
2.13006e-05
2.11033e-05
2.08492e-05
2.05282e-05
2.01277e-05
1.96328e-05
1.90262e-05
1.82878e-05
1.73951e-05
1.63235e-05
1.50472e-05
1.35399e-05
1.1777e-05
9.73765e-06
7.40797e-06
4.78502e-06
1.88099e-06
-1.27224e-06
-4.61912e-06
-8.07788e-06
-1.15406e-05
-1.4877e-05
-1.7943e-05
-2.05933e-05
-2.26981e-05
-2.41597e-05
-2.49271e-05
-2.50031e-05
-2.4443e-05
-2.33449e-05
-2.18329e-05
-2.00396e-05
-1.80906e-05
-1.60938e-05
-1.41348e-05
-1.22758e-05
-1.05578e-05
-9.00386e-06
-7.62308e-06
-6.41419e-06
-5.36889e-06
-4.4745e-06
-3.716e-06
-3.07759e-06
-2.54366e-06
-2.09952e-06
-1.73171e-06
-1.42825e-06
-1.17863e-06
-9.73775e-07
-8.05933e-07
-6.68574e-07
-5.56233e-07
-4.64367e-07
-3.8922e-07
-3.27694e-07
-2.77241e-07
-2.35777e-07
-2.016e-07
-1.73327e-07
-1.49834e-07
-1.30199e-07
-1.13663e-07
-9.95969e-08
-8.74774e-08
-7.68761e-08
-6.74471e-08
-5.89183e-08
-5.10796e-08
-4.3773e-08
-3.68812e-08
-3.03192e-08
-2.4025e-08
-1.79685e-08
-1.20355e-08
-7.37509e-09
2.16794e-05
2.16544e-05
2.15903e-05
2.14873e-05
2.13437e-05
2.11535e-05
2.09083e-05
2.05979e-05
2.02101e-05
1.97299e-05
1.914e-05
1.84201e-05
1.75473e-05
1.64964e-05
1.52404e-05
1.37516e-05
1.20032e-05
9.97189e-06
7.64077e-06
5.00356e-06
2.06924e-06
-1.13292e-06
-4.54862e-06
-8.09524e-06
-1.16612e-05
-1.51093e-05
-1.82854e-05
-2.10327e-05
-2.32094e-05
-2.47084e-05
-2.54738e-05
-2.55096e-05
-2.48781e-05
-2.36883e-05
-2.20766e-05
-2.01866e-05
-1.81517e-05
-1.60846e-05
-1.40722e-05
-1.21761e-05
-1.04352e-05
-8.87008e-06
-7.48706e-06
-6.28235e-06
-5.24546e-06
-4.36197e-06
-3.61555e-06
-2.98943e-06
-2.46737e-06
-2.03426e-06
-1.67644e-06
-1.38185e-06
-1.13995e-06
-9.41723e-07
-7.79521e-07
-6.46909e-07
-5.38534e-07
-4.49962e-07
-3.77536e-07
-3.18245e-07
-2.69618e-07
-2.29636e-07
-1.96656e-07
-1.69346e-07
-1.46626e-07
-1.27611e-07
-1.11571e-07
-9.78985e-08
-8.60903e-08
-7.57334e-08
-6.6497e-08
-5.8123e-08
-5.04142e-08
-4.32223e-08
-3.64369e-08
-2.99764e-08
-2.37786e-08
-1.78088e-08
-1.19451e-08
-7.31848e-09
2.17156e-05
2.16918e-05
2.16308e-05
2.15327e-05
2.13957e-05
2.12141e-05
2.09795e-05
2.06821e-05
2.03096e-05
1.98473e-05
1.92777e-05
1.85803e-05
1.77319e-05
1.67063e-05
1.54753e-05
1.40094e-05
1.22793e-05
1.02586e-05
7.92664e-06
5.27303e-06
2.30268e-06
-9.58479e-07
-4.4579e-06
-8.11214e-06
-1.18052e-05
-1.53915e-05
-1.87047e-05
-2.15729e-05
-2.38394e-05
-2.53851e-05
-2.61477e-05
-2.61328e-05
-2.54118e-05
-2.41075e-05
-2.23719e-05
-2.03623e-05
-1.82221e-05
-1.60691e-05
-1.3992e-05
-1.20514e-05
-1.02834e-05
-8.70547e-06
-7.32041e-06
-6.12132e-06
-5.09509e-06
-4.22517e-06
-3.49364e-06
-2.88259e-06
-2.37502e-06
-1.95535e-06
-1.60968e-06
-1.32583e-06
-1.09328e-06
-9.03094e-07
-7.47711e-07
-6.20837e-07
-5.17253e-07
-4.32659e-07
-3.63519e-07
-3.06928e-07
-2.60506e-07
-2.22314e-07
-1.90779e-07
-1.64634e-07
-1.4285e-07
-1.24587e-07
-1.09149e-07
-9.59563e-08
-8.4526e-08
-7.44652e-08
-6.54614e-08
-5.72737e-08
-4.97199e-08
-4.26638e-08
-3.60032e-08
-2.96601e-08
-2.35719e-08
-1.76993e-08
-1.19109e-08
-7.31795e-09
2.17571e-05
2.17346e-05
2.16771e-05
2.15846e-05
2.14553e-05
2.12835e-05
2.10612e-05
2.07787e-05
2.04239e-05
1.99823e-05
1.94361e-05
1.87649e-05
1.79448e-05
1.69489e-05
1.57473e-05
1.43086e-05
1.26006e-05
1.05933e-05
8.26163e-06
5.59031e-06
2.57936e-06
-7.49421e-07
-4.34586e-06
-8.12582e-06
-1.19684e-05
-1.57183e-05
-1.91944e-05
-2.2207e-05
-2.4581e-05
-2.61823e-05
-2.69413e-05
-2.68653e-05
-2.60365e-05
-2.45952e-05
-2.27123e-05
-2.05615e-05
-1.82978e-05
-1.60451e-05
-1.38935e-05
-1.19021e-05
-1.01039e-05
-8.51212e-06
-7.12562e-06
-5.93382e-06
-4.92052e-06
-4.06674e-06
-3.35274e-06
-2.75932e-06
-2.26862e-06
-1.86455e-06
-1.53293e-06
-1.26148e-06
-1.03971e-06
-8.58759e-07
-7.1121e-07
-5.90918e-07
-4.92824e-07
-4.12785e-07
-3.47403e-07
-2.93896e-07
-2.4999e-07
-2.13837e-07
-1.83949e-07
-1.59129e-07
-1.38411e-07
-1.21006e-07
-1.06256e-07
-9.36107e-08
-8.26136e-08
-7.28933e-08
-6.41583e-08
-5.61873e-08
-4.88155e-08
-4.19204e-08
-3.54084e-08
-2.92058e-08
-2.32496e-08
-1.74961e-08
-1.18056e-08
-7.27268e-09
2.18027e-05
2.17818e-05
2.17282e-05
2.16419e-05
2.1521e-05
2.13601e-05
2.11515e-05
2.08855e-05
2.05504e-05
2.01317e-05
1.96118e-05
1.89699e-05
1.81817e-05
1.72191e-05
1.6051e-05
1.46435e-05
1.29614e-05
1.09704e-05
8.64068e-06
5.95126e-06
2.89647e-06
-5.06884e-07
-4.21166e-06
-8.13336e-06
-1.21459e-05
-1.60829e-05
-1.97465e-05
-2.2926e-05
-2.54245e-05
-2.70905e-05
-2.78448e-05
-2.7697e-05
-2.67428e-05
-2.51428e-05
-2.30904e-05
-2.07785e-05
-1.8375e-05
-1.60105e-05
-1.37764e-05
-1.17294e-05
-9.89875e-06
-8.29283e-06
-6.9059e-06
-5.72321e-06
-4.72509e-06
-3.88987e-06
-3.19581e-06
-2.62229e-06
-2.15054e-06
-1.76392e-06
-1.44798e-06
-1.19034e-06
-9.80551e-07
-8.09856e-07
-6.70992e-07
-5.5799e-07
-4.65977e-07
-3.90979e-07
-3.29757e-07
-2.79662e-07
-2.38539e-07
-2.04641e-07
-1.76573e-07
-1.53219e-07
-1.33681e-07
-1.17225e-07
-1.03237e-07
-9.11984e-08
-8.06793e-08
-7.13323e-08
-6.2889e-08
-5.51498e-08
-4.7969e-08
-4.12391e-08
-3.48763e-08
-2.88112e-08
-2.29805e-08
-1.73366e-08
-1.1732e-08
-7.2475e-09
2.18515e-05
2.18322e-05
2.17828e-05
2.1703e-05
2.15912e-05
2.14421e-05
2.12481e-05
2.09999e-05
2.06861e-05
2.02922e-05
1.98007e-05
1.91907e-05
1.84371e-05
1.75113e-05
1.63801e-05
1.50074e-05
1.33546e-05
1.13831e-05
9.05736e-06
6.35037e-06
3.24991e-06
-2.3304e-07
-4.05514e-06
-8.13199e-06
-1.23322e-05
-1.64774e-05
-2.0351e-05
-2.37184e-05
-2.63577e-05
-2.80966e-05
-2.88451e-05
-2.86155e-05
-2.75188e-05
-2.57397e-05
-2.34974e-05
-2.10067e-05
-1.84496e-05
-1.59635e-05
-1.36407e-05
-1.1535e-05
-9.67075e-06
-8.05115e-06
-6.66518e-06
-5.49352e-06
-4.51275e-06
-3.69827e-06
-3.02621e-06
-2.47451e-06
-2.02341e-06
-1.65573e-06
-1.35674e-06
-1.114e-06
-9.17101e-07
-7.57421e-07
-6.27869e-07
-5.22672e-07
-4.37159e-07
-3.67546e-07
-3.10763e-07
-2.64307e-07
-2.26147e-07
-1.9465e-07
-1.68518e-07
-1.46725e-07
-1.28448e-07
-1.1301e-07
-9.9843e-08
-8.84625e-08
-7.84658e-08
-6.95311e-08
-6.1414e-08
-5.39383e-08
-4.69784e-08
-4.04423e-08
-3.42561e-08
-2.83547e-08
-2.26746e-08
-1.71641e-08
-1.16679e-08
-7.24721e-09
2.19021e-05
2.18845e-05
2.18395e-05
2.17667e-05
2.16643e-05
2.15274e-05
2.13487e-05
2.11193e-05
2.08277e-05
2.04599e-05
1.99984e-05
1.9422e-05
1.87054e-05
1.78187e-05
1.67273e-05
1.53925e-05
1.37722e-05
1.1823e-05
9.50378e-06
6.78062e-06
3.63412e-06
6.86585e-08
-3.87705e-06
-8.11932e-06
-1.25216e-05
-1.68928e-05
-2.0996e-05
-2.457e-05
-2.73648e-05
-2.91842e-05
-2.99259e-05
-2.96049e-05
-2.83501e-05
-2.63735e-05
-2.39238e-05
-2.12394e-05
-1.85179e-05
-1.59031e-05
-1.34875e-05
-1.13215e-05
-9.42377e-06
-7.79159e-06
-6.40827e-06
-5.24957e-06
-4.28809e-06
-3.4962e-06
-2.84785e-06
-2.31945e-06
-1.89029e-06
-1.54264e-06
-1.26153e-06
-1.03446e-06
-8.51095e-07
-7.02959e-07
-5.83151e-07
-4.86114e-07
-4.07391e-07
-3.43401e-07
-2.91249e-07
-2.48586e-07
-2.13511e-07
-1.8451e-07
-1.60388e-07
-1.40213e-07
-1.2324e-07
-1.08854e-07
-9.6531e-08
-8.58222e-08
-7.63531e-08
-6.7828e-08
-6.00283e-08
-5.28018e-08
-4.60446e-08
-3.96809e-08
-3.36468e-08
-2.78819e-08
-2.23228e-08
-1.69153e-08
-1.15016e-08
-7.14438e-09
2.19534e-05
2.19376e-05
2.18969e-05
2.18312e-05
2.17385e-05
2.1614e-05
2.1451e-05
2.12406e-05
2.09718e-05
2.06308e-05
2.02001e-05
1.96585e-05
1.89801e-05
1.81342e-05
1.70845e-05
1.57899e-05
1.42046e-05
1.22806e-05
9.9705e-06
7.23331e-06
4.04186e-06
3.93178e-07
-3.67943e-06
-8.09371e-06
-1.27083e-05
-1.73192e-05
-2.16676e-05
-2.54638e-05
-2.84264e-05
-3.03329e-05
-3.10667e-05
-3.0646e-05
-2.92196e-05
-2.70303e-05
-2.43589e-05
-2.14698e-05
-1.85765e-05
-1.58289e-05
-1.33191e-05
-1.10927e-05
-9.16268e-06
-7.51957e-06
-6.14073e-06
-4.99678e-06
-4.0562e-06
-3.28831e-06
-2.66483e-06
-2.16068e-06
-1.75422e-06
-1.4272e-06
-1.16444e-06
-9.53409e-07
-7.83864e-07
-6.47488e-07
-5.37589e-07
-4.48837e-07
-3.77001e-07
-3.1871e-07
-2.71251e-07
-2.32431e-07
-2.00482e-07
-1.74009e-07
-1.51929e-07
-1.33404e-07
-1.17769e-07
-1.04469e-07
-9.30274e-08
-8.30272e-08
-7.41217e-08
-6.60417e-08
-5.85945e-08
-5.16533e-08
-4.51353e-08
-3.89808e-08
-3.31356e-08
-2.75428e-08
-2.21383e-08
-1.68644e-08
-1.15549e-08
-7.2461e-09
2.2004e-05
2.19899e-05
2.19537e-05
2.18949e-05
2.18118e-05
2.16998e-05
2.15523e-05
2.13609e-05
2.11149e-05
2.08006e-05
2.04008e-05
1.98942e-05
1.92545e-05
1.845e-05
1.74431e-05
1.619e-05
1.46416e-05
1.2745e-05
1.04466e-05
7.69806e-06
4.46407e-06
7.33708e-07
-3.46585e-06
-8.05455e-06
-1.28868e-05
-1.77457e-05
-2.235e-05
-2.63796e-05
-2.95194e-05
-3.15179e-05
-3.22429e-05
-3.17159e-05
-3.01076e-05
-2.76944e-05
-2.47917e-05
-2.16915e-05
-1.8623e-05
-1.57419e-05
-1.31386e-05
-1.08538e-05
-8.89349e-06
-7.24153e-06
-5.86902e-06
-4.74133e-06
-3.82285e-06
-3.07983e-06
-2.48183e-06
-2.00233e-06
-1.61882e-06
-1.31258e-06
-1.06823e-06
-8.73247e-07
-7.17501e-07
-5.92845e-07
-4.92803e-07
-4.12281e-07
-3.47278e-07
-2.94635e-07
-2.5182e-07
-2.16793e-07
-1.8792e-07
-1.63927e-07
-1.43841e-07
-1.26921e-07
-1.12581e-07
-1.00328e-07
-8.97255e-08
-8.03896e-08
-7.20007e-08
-6.4316e-08
-5.71704e-08
-5.04633e-08
-4.41343e-08
-3.814e-08
-3.24352e-08
-2.69665e-08
-2.16693e-08
-1.64846e-08
-1.12502e-08
-7.02371e-09
2.20528e-05
2.20404e-05
2.20084e-05
2.19563e-05
2.18825e-05
2.17825e-05
2.16501e-05
2.14771e-05
2.12533e-05
2.09651e-05
2.05955e-05
2.01232e-05
1.95216e-05
1.87582e-05
1.77938e-05
1.65826e-05
1.50719e-05
1.32041e-05
1.09197e-05
8.16286e-06
4.88987e-06
1.08156e-06
-3.24162e-06
-8.00258e-06
-1.30522e-05
-1.81612e-05
-2.30257e-05
-2.72942e-05
-3.06164e-05
-3.271e-05
-3.34257e-05
-3.27883e-05
-3.0992e-05
-2.83489e-05
-2.52112e-05
-2.18987e-05
-1.86563e-05
-1.56444e-05
-1.2951e-05
-1.06109e-05
-8.62322e-06
-6.96468e-06
-5.60012e-06
-4.48973e-06
-3.5939e-06
-2.87592e-06
-2.30329e-06
-1.84816e-06
-1.48721e-06
-1.20129e-06
-9.74895e-07
-7.95524e-07
-6.53165e-07
-5.39858e-07
-4.49347e-07
-3.76773e-07
-3.18369e-07
-2.71183e-07
-2.32859e-07
-2.01502e-07
-1.7561e-07
-1.54027e-07
-1.35888e-07
-1.20549e-07
-1.07499e-07
-9.62998e-08
-8.65547e-08
-7.79076e-08
-7.00635e-08
-6.28055e-08
-5.59959e-08
-4.95605e-08
-4.34613e-08
-3.76701e-08
-3.21499e-08
-2.68487e-08
-2.16999e-08
-1.66394e-08
-1.14933e-08
-7.27953e-09
2.20984e-05
2.20875e-05
2.20596e-05
2.20139e-05
2.19488e-05
2.18601e-05
2.17419e-05
2.15864e-05
2.13835e-05
2.112e-05
2.07792e-05
2.03396e-05
1.97744e-05
1.90505e-05
1.81274e-05
1.6957e-05
1.54837e-05
1.36453e-05
1.13766e-05
8.61432e-06
5.30676e-06
1.42624e-06
-3.01386e-06
-7.94003e-06
-1.32005e-05
-1.85544e-05
-2.3676e-05
-2.81822e-05
-3.1687e-05
-3.38759e-05
-3.4582e-05
-3.38334e-05
-3.18485e-05
-2.89763e-05
-2.56063e-05
-2.20865e-05
-1.86763e-05
-1.55399e-05
-1.27622e-05
-1.03716e-05
-8.35993e-06
-6.69711e-06
-5.3418e-06
-4.24919e-06
-3.37588e-06
-2.6824e-06
-2.13436e-06
-1.70267e-06
-1.3633e-06
-1.09676e-06
-8.87422e-07
-7.22846e-07
-5.93142e-07
-4.90535e-07
-4.0899e-07
-3.43879e-07
-2.91658e-07
-2.49574e-07
-2.15436e-07
-1.87488e-07
-1.64348e-07
-1.44974e-07
-1.28609e-07
-1.14698e-07
-1.02804e-07
-9.25416e-08
-8.35456e-08
-7.54853e-08
-6.80886e-08
-6.11641e-08
-5.46023e-08
-4.83563e-08
-4.2411e-08
-3.67536e-08
-3.13544e-08
-2.61622e-08
-2.11079e-08
-1.61254e-08
-1.10495e-08
-6.93593e-09
2.21397e-05
2.21303e-05
2.2106e-05
2.20661e-05
2.20089e-05
2.19306e-05
2.18253e-05
2.16858e-05
2.15021e-05
2.12613e-05
2.09469e-05
2.05375e-05
2.00061e-05
1.93188e-05
1.84343e-05
1.73025e-05
1.58648e-05
1.40553e-05
1.1803e-05
9.0381e-06
5.70097e-06
1.75576e-06
-2.7913e-06
-7.87071e-06
-1.33289e-05
-1.89146e-05
-2.42815e-05
-2.90163e-05
-3.26975e-05
-3.49791e-05
-3.56759e-05
-3.48191e-05
-3.26513e-05
-2.95584e-05
-2.59668e-05
-2.22511e-05
-1.86845e-05
-1.54336e-05
-1.25794e-05
-1.0144e-05
-8.11217e-06
-6.4471e-06
-5.10171e-06
-4.02656e-06
-3.17477e-06
-2.50437e-06
-1.97929e-06
-1.56934e-06
-1.2499e-06
-1.00118e-06
-8.07502e-07
-6.56469e-07
-5.3833e-07
-4.45488e-07
-3.72116e-07
-3.13808e-07
-2.67231e-07
-2.29812e-07
-1.99511e-07
-1.74696e-07
-1.54094e-07
-1.36767e-07
-1.22057e-07
-1.09494e-07
-9.87086e-08
-8.93568e-08
-8.11025e-08
-7.36343e-08
-6.66991e-08
-6.01289e-08
-5.3841e-08
-4.78155e-08
-4.20595e-08
-3.65745e-08
-3.13364e-08
-2.62931e-08
-2.13704e-08
-1.64947e-08
-1.14837e-08
-7.33953e-09
2.21758e-05
2.21676e-05
2.21464e-05
2.21116e-05
2.20614e-05
2.19921e-05
2.18983e-05
2.17728e-05
2.1606e-05
2.13853e-05
2.10942e-05
2.07115e-05
2.021e-05
1.95556e-05
1.87056e-05
1.76087e-05
1.62036e-05
1.44209e-05
1.21848e-05
9.41952e-06
6.05809e-06
2.05715e-06
-2.58393e-06
-7.79979e-06
-1.34359e-05
-1.9232e-05
-2.48232e-05
-2.97685e-05
-3.36132e-05
-3.59811e-05
-3.66693e-05
-3.57119e-05
-3.33743e-05
-3.00777e-05
-2.62833e-05
-2.23903e-05
-1.86837e-05
-1.53315e-05
-1.24108e-05
-9.9372e-06
-7.88907e-06
-6.22342e-06
-4.88797e-06
-3.82918e-06
-2.99709e-06
-2.34756e-06
-1.84307e-06
-1.45252e-06
-1.15077e-06
-9.17822e-07
-7.37954e-07
-5.98838e-07
-4.90846e-07
-4.06544e-07
-3.40298e-07
-2.87903e-07
-2.46218e-07
-2.12833e-07
-1.85835e-07
-1.63699e-07
-1.45249e-07
-1.29641e-07
-1.16304e-07
-1.04849e-07
-9.49614e-08
-8.63385e-08
-7.8666e-08
-7.16473e-08
-6.50458e-08
-5.8715e-08
-5.25981e-08
-4.67011e-08
-4.10526e-08
-3.56675e-08
-3.05266e-08
-2.55757e-08
-2.07353e-08
-1.59284e-08
-1.09819e-08
-6.94177e-09
2.22055e-05
2.21984e-05
2.21799e-05
2.21493e-05
2.21049e-05
2.20432e-05
2.19589e-05
2.1845e-05
2.16923e-05
2.14884e-05
2.12169e-05
2.08567e-05
2.03805e-05
1.97538e-05
1.89332e-05
1.7866e-05
1.64891e-05
1.47299e-05
1.25086e-05
9.74431e-06
6.36386e-06
2.31723e-06
-2.40233e-06
-7.73342e-06
-1.35211e-05
-1.94979e-05
-2.52832e-05
-3.04117e-05
-3.43996e-05
-3.68433e-05
-3.75242e-05
-3.64784e-05
-3.39921e-05
-3.0518e-05
-2.6548e-05
-2.2503e-05
-1.86775e-05
-1.52404e-05
-1.22645e-05
-9.75994e-06
-7.69917e-06
-6.03399e-06
-4.70768e-06
-3.6632e-06
-2.84805e-06
-2.21632e-06
-1.72925e-06
-1.35504e-06
-1.06815e-06
-8.48411e-07
-6.80094e-07
-5.50931e-07
-4.51404e-07
-3.74221e-07
-3.13914e-07
-2.66452e-07
-2.28858e-07
-1.98856e-07
-1.74641e-07
-1.54772e-07
-1.38151e-07
-1.24011e-07
-1.11856e-07
-1.01364e-07
-9.2272e-08
-8.43053e-08
-7.71665e-08
-7.05696e-08
-6.429e-08
-5.81991e-08
-5.22625e-08
-4.65099e-08
-4.09887e-08
-3.57254e-08
-3.07041e-08
-2.58672e-08
-2.11282e-08
-1.64004e-08
-1.14914e-08
-7.39061e-09
2.22283e-05
2.22219e-05
2.22055e-05
2.21781e-05
2.21383e-05
2.20824e-05
2.20054e-05
2.19006e-05
2.17589e-05
2.1568e-05
2.13117e-05
2.0969e-05
2.05125e-05
1.99074e-05
1.91099e-05
1.80662e-05
1.67116e-05
1.49712e-05
1.27623e-05
9.99955e-06
6.60513e-06
2.52359e-06
-2.2568e-06
-7.67806e-06
-1.35852e-05
-1.97054e-05
-2.56457e-05
-3.09212e-05
-3.50245e-05
-3.75297e-05
-3.8205e-05
-3.70878e-05
-3.44816e-05
-3.08648e-05
-2.67545e-05
-2.25891e-05
-1.86703e-05
-1.5167e-05
-1.21487e-05
-9.62065e-06
-7.55072e-06
-5.88649e-06
-4.56774e-06
-3.53476e-06
-2.73302e-06
-2.11526e-06
-1.64182e-06
-1.28033e-06
-1.00496e-06
-7.95444e-07
-6.3604e-07
-5.14537e-07
-4.21503e-07
-3.49761e-07
-2.93972e-07
-2.50249e-07
-2.15744e-07
-1.88287e-07
-1.66153e-07
-1.47966e-07
-1.32684e-07
-1.19602e-07
-1.08286e-07
-9.84653e-08
-8.99179e-08
-8.23936e-08
-7.56062e-08
-6.92766e-08
-6.3189e-08
-5.72287e-08
-5.13802e-08
-4.56928e-08
-4.02301e-08
-3.5028e-08
-3.00727e-08
-2.53029e-08
-2.06256e-08
-1.59493e-08
-1.10877e-08
-7.06541e-09
2.22434e-05
2.22376e-05
2.22225e-05
2.21974e-05
2.21606e-05
2.21086e-05
2.20367e-05
2.19381e-05
2.18038e-05
2.16217e-05
2.13758e-05
2.1045e-05
2.06019e-05
2.00117e-05
1.923e-05
1.82025e-05
1.68633e-05
1.51361e-05
1.29358e-05
1.01745e-05
6.77086e-06
2.66568e-06
-2.15633e-06
-7.63968e-06
-1.36295e-05
-1.98495e-05
-2.58979e-05
-3.12765e-05
-3.54612e-05
-3.80099e-05
-3.86813e-05
-3.7514e-05
-3.48234e-05
-3.11064e-05
-2.68983e-05
-2.26491e-05
-1.8666e-05
-1.51174e-05
-1.20701e-05
-9.52615e-06
-7.45014e-06
-5.78671e-06
-4.47325e-06
-3.44816e-06
-2.6556e-06
-2.04735e-06
-1.58317e-06
-1.2303e-06
-9.62719e-07
-7.6011e-07
-6.06724e-07
-4.90388e-07
-4.01732e-07
-3.33653e-07
-2.80906e-07
-2.39701e-07
-2.07281e-07
-1.81548e-07
-1.60831e-07
-1.43791e-07
-1.29425e-07
-1.17068e-07
-1.06328e-07
-9.69728e-08
-8.88075e-08
-8.15982e-08
-7.50658e-08
-6.89339e-08
-6.29913e-08
-5.71328e-08
-5.13561e-08
-4.57249e-08
-4.03149e-08
-3.51691e-08
-3.02745e-08
-2.55661e-08
-2.09443e-08
-1.63092e-08
-1.14598e-08
-7.38208e-09
2.22505e-05
2.2245e-05
2.22306e-05
2.22066e-05
2.21713e-05
2.21213e-05
2.20519e-05
2.19563e-05
2.18257e-05
2.1648e-05
2.14073e-05
2.10825e-05
2.06462e-05
2.00633e-05
1.92896e-05
1.82702e-05
1.69388e-05
1.52181e-05
1.30222e-05
1.02616e-05
6.85312e-06
2.73579e-06
-2.1076e-06
-7.62284e-06
-1.36552e-05
-1.99266e-05
-2.60309e-05
-3.1463e-05
-3.56899e-05
-3.82613e-05
-3.89308e-05
-3.77376e-05
-3.50033e-05
-3.12346e-05
-2.6976e-05
-2.26839e-05
-1.86677e-05
-1.50959e-05
-1.20337e-05
-9.48162e-06
-7.40235e-06
-5.73914e-06
-4.42816e-06
-3.40688e-06
-2.61876e-06
-2.01514e-06
-1.55545e-06
-1.20676e-06
-9.42954e-07
-7.43678e-07
-5.93187e-07
-4.79327e-07
-3.92755e-07
-3.26405e-07
-2.75079e-07
-2.35037e-07
-2.03571e-07
-1.7862e-07
-1.58537e-07
-1.42e-07
-1.28023e-07
-1.1596e-07
-1.05442e-07
-9.62573e-08
-8.82271e-08
-8.11259e-08
-7.46767e-08
-6.8603e-08
-6.26948e-08
-5.68507e-08
-5.10759e-08
-4.54429e-08
-4.00349e-08
-3.48991e-08
-3.00232e-08
-2.53391e-08
-2.07423e-08
-1.61287e-08
-1.12977e-08
-7.24946e-09
2.22494e-05
2.22439e-05
2.22295e-05
2.22054e-05
2.21701e-05
2.212e-05
2.20505e-05
2.19548e-05
2.18241e-05
2.16462e-05
2.14053e-05
2.10803e-05
2.06438e-05
2.00607e-05
1.92867e-05
1.8267e-05
1.69352e-05
1.52142e-05
1.30178e-05
1.02567e-05
6.84776e-06
2.72987e-06
-2.11411e-06
-7.62999e-06
-1.3663e-05
-1.99351e-05
-2.60401e-05
-3.14728e-05
-3.57002e-05
-3.8272e-05
-3.89417e-05
-3.77485e-05
-3.5014e-05
-3.12451e-05
-2.69862e-05
-2.26938e-05
-1.86773e-05
-1.5105e-05
-1.20423e-05
-9.48961e-06
-7.40972e-06
-5.7459e-06
-4.43431e-06
-3.41245e-06
-2.6238e-06
-2.01968e-06
-1.55953e-06
-1.21042e-06
-9.46234e-07
-7.46615e-07
-5.95819e-07
-4.81686e-07
-3.94868e-07
-3.28292e-07
-2.7676e-07
-2.36532e-07
-2.04901e-07
-1.79807e-07
-1.59596e-07
-1.42945e-07
-1.28861e-07
-1.16696e-07
-1.06082e-07
-9.681e-08
-8.87036e-08
-8.15372e-08
-7.50317e-08
-6.89073e-08
-6.29509e-08
-5.706e-08
-5.12406e-08
-4.55676e-08
-4.01269e-08
-3.49676e-08
-3.00774e-08
-2.53864e-08
-2.07873e-08
-1.61722e-08
-1.13368e-08
-7.27865e-09
2.22401e-05
2.22343e-05
2.22192e-05
2.21939e-05
2.21569e-05
2.21048e-05
2.20325e-05
2.19336e-05
2.17989e-05
2.16164e-05
2.13699e-05
2.10385e-05
2.05948e-05
2.00038e-05
1.92213e-05
1.81928e-05
1.68526e-05
1.51242e-05
1.29227e-05
1.016e-05
6.75483e-06
2.648e-06
-2.17579e-06
-7.66102e-06
-1.36528e-05
-1.98748e-05
-2.59253e-05
-3.13058e-05
-3.5492e-05
-3.80418e-05
-3.87137e-05
-3.75463e-05
-3.48552e-05
-3.11375e-05
-2.69286e-05
-2.26787e-05
-1.86944e-05
-1.51445e-05
-1.20956e-05
-9.54996e-06
-7.47212e-06
-5.80686e-06
-4.4916e-06
-3.4648e-06
-2.67063e-06
-2.0609e-06
-1.59533e-06
-1.2412e-06
-9.7248e-07
-7.6884e-07
-6.14533e-07
-4.97372e-07
-4.0797e-07
-3.39207e-07
-2.85835e-07
-2.44064e-07
-2.11141e-07
-1.84969e-07
-1.63863e-07
-1.46472e-07
-1.31778e-07
-1.1911e-07
-1.08078e-07
-9.84592e-08
-9.00633e-08
-8.26573e-08
-7.59554e-08
-6.96718e-08
-6.35866e-08
-5.75909e-08
-5.16848e-08
-4.59389e-08
-4.04369e-08
-3.52267e-08
-3.02958e-08
-2.55741e-08
-2.09531e-08
-1.63227e-08
-1.14733e-08
-7.38918e-09
2.22229e-05
2.22165e-05
2.21999e-05
2.21724e-05
2.21322e-05
2.20759e-05
2.19985e-05
2.18932e-05
2.17508e-05
2.15591e-05
2.1302e-05
2.09583e-05
2.05007e-05
1.98944e-05
1.90955e-05
1.80502e-05
1.66939e-05
1.49516e-05
1.27406e-05
9.97553e-06
6.5786e-06
2.49436e-06
-2.28895e-06
-7.71331e-06
-1.36237e-05
-1.97473e-05
-2.56908e-05
-3.09693e-05
-3.50752e-05
-3.75822e-05
-3.82582e-05
-3.71409e-05
-3.4534e-05
-3.0916e-05
-2.68045e-05
-2.26377e-05
-1.87171e-05
-1.52117e-05
-1.21908e-05
-9.6599e-06
-7.58698e-06
-5.91975e-06
-4.59807e-06
-3.56227e-06
-2.75789e-06
-2.13768e-06
-1.66198e-06
-1.29842e-06
-1.02116e-06
-8.09945e-07
-6.49023e-07
-5.2616e-07
-4.31896e-07
-3.5903e-07
-3.02213e-07
-2.5756e-07
-2.22227e-07
-1.94045e-07
-1.7127e-07
-1.52502e-07
-1.36678e-07
-1.23084e-07
-1.11289e-07
-1.01034e-07
-9.21056e-08
-8.42543e-08
-7.71842e-08
-7.06008e-08
-6.42748e-08
-5.80855e-08
-5.20212e-08
-4.6142e-08
-4.05239e-08
-3.52112e-08
-3.01904e-08
-2.53922e-08
-2.07097e-08
-1.60347e-08
-1.11655e-08
-7.12129e-09
2.2198e-05
2.21908e-05
2.21721e-05
2.21412e-05
2.20965e-05
2.20342e-05
2.19493e-05
2.18347e-05
2.16811e-05
2.14762e-05
2.12035e-05
2.08419e-05
2.03642e-05
1.97357e-05
1.89132e-05
1.78439e-05
1.64646e-05
1.47027e-05
1.24785e-05
9.71104e-06
6.32715e-06
2.27679e-06
-2.44676e-06
-7.78209e-06
-1.35742e-05
-1.95555e-05
-2.53453e-05
-3.04778e-05
-3.44691e-05
-3.69152e-05
-3.75972e-05
-3.65513e-05
-3.4064e-05
-3.05884e-05
-2.66167e-05
-2.25698e-05
-1.87419e-05
-1.53018e-05
-1.23224e-05
-9.81399e-06
-7.74917e-06
-6.07989e-06
-4.74956e-06
-3.70124e-06
-2.88247e-06
-2.24736e-06
-1.75718e-06
-1.38012e-06
-1.09061e-06
-8.68532e-07
-6.9811e-07
-5.67059e-07
-4.65825e-07
-3.87082e-07
-3.25348e-07
-2.76595e-07
-2.37849e-07
-2.06832e-07
-1.81718e-07
-1.61035e-07
-1.43656e-07
-1.28802e-07
-1.15981e-07
-1.04884e-07
-9.52592e-08
-8.68337e-08
-7.92973e-08
-7.23441e-08
-6.57321e-08
-5.93245e-08
-5.30916e-08
-4.70769e-08
-4.13437e-08
-3.59292e-08
-3.0818e-08
-2.5942e-08
-2.11961e-08
-1.64722e-08
-1.15585e-08
-7.4383e-09
2.21662e-05
2.21579e-05
2.21365e-05
2.21014e-05
2.20507e-05
2.19807e-05
2.18861e-05
2.17596e-05
2.15917e-05
2.13697e-05
2.10771e-05
2.06927e-05
2.01893e-05
1.95326e-05
1.86802e-05
1.75805e-05
1.61724e-05
1.43864e-05
1.21466e-05
9.37733e-06
6.01158e-06
2.00597e-06
-2.6401e-06
-7.86125e-06
-1.35028e-05
-1.93045e-05
-2.49013e-05
-2.98515e-05
-3.37004e-05
-3.60711e-05
-3.67607e-05
-3.58032e-05
-3.34645e-05
-3.01661e-05
-2.63696e-05
-2.24742e-05
-1.87646e-05
-1.54087e-05
-1.24836e-05
-1.00052e-05
-7.95208e-06
-6.28134e-06
-4.94089e-06
-3.87729e-06
-3.04066e-06
-2.38692e-06
-1.87851e-06
-1.48437e-06
-1.17933e-06
-9.43419e-07
-7.60889e-07
-6.19382e-07
-5.09227e-07
-4.22952e-07
-3.54903e-07
-3.00873e-07
-2.57727e-07
-2.23049e-07
-1.94903e-07
-1.71727e-07
-1.52312e-07
-1.35798e-07
-1.21616e-07
-1.09391e-07
-9.88246e-08
-8.96124e-08
-8.14268e-08
-7.39488e-08
-6.69211e-08
-6.01877e-08
-5.36963e-08
-4.74687e-08
-4.15516e-08
-3.59722e-08
-3.07117e-08
-2.57036e-08
-2.08466e-08
-1.60378e-08
-1.10805e-08
-7.01396e-09
2.21282e-05
2.21187e-05
2.2094e-05
2.20537e-05
2.19959e-05
2.19168e-05
2.18106e-05
2.16699e-05
2.14848e-05
2.12425e-05
2.09263e-05
2.05148e-05
1.9981e-05
1.92911e-05
1.84036e-05
1.72685e-05
1.58272e-05
1.40137e-05
1.1757e-05
8.98742e-06
5.64514e-06
1.69441e-06
-2.85856e-06
-7.94418e-06
-1.34088e-05
-1.90011e-05
-2.43743e-05
-2.91148e-05
-3.28008e-05
-3.50857e-05
-3.57842e-05
-3.49273e-05
-3.27582e-05
-2.96633e-05
-2.60693e-05
-2.23507e-05
-1.87806e-05
-1.55253e-05
-1.2666e-05
-1.0225e-05
-8.18733e-06
-6.51629e-06
-5.16501e-06
-4.0842e-06
-3.22704e-06
-2.55163e-06
-2.0219e-06
-1.60768e-06
-1.28432e-06
-1.03205e-06
-8.3518e-07
-6.81274e-07
-5.60537e-07
-4.65326e-07
-3.89789e-07
-3.29516e-07
-2.81176e-07
-2.42191e-07
-2.10495e-07
-1.84415e-07
-1.62643e-07
-1.44221e-07
-1.2849e-07
-1.14998e-07
-1.03385e-07
-9.33119e-08
-8.44275e-08
-7.63964e-08
-6.89433e-08
-6.18894e-08
-5.51559e-08
-4.8739e-08
-4.26646e-08
-3.69473e-08
-3.15633e-08
-2.64465e-08
-2.14985e-08
-1.66173e-08
-1.1594e-08
-7.42244e-09
2.2085e-05
2.2074e-05
2.20456e-05
2.19994e-05
2.19336e-05
2.1844e-05
2.17247e-05
2.15678e-05
2.13633e-05
2.10981e-05
2.07551e-05
2.03131e-05
1.97452e-05
1.90182e-05
1.80917e-05
1.69175e-05
1.544e-05
1.35971e-05
1.13233e-05
8.55562e-06
5.24217e-06
1.35535e-06
-3.09145e-06
-8.02465e-06
-1.32924e-05
-1.86536e-05
-2.37822e-05
-2.82948e-05
-3.18048e-05
-3.39974e-05
-3.47054e-05
-3.39568e-05
-3.19706e-05
-2.90962e-05
-2.57235e-05
-2.22004e-05
-1.87862e-05
-1.56449e-05
-1.28614e-05
-1.04645e-05
-8.44629e-06
-6.77674e-06
-5.41477e-06
-4.31573e-06
-3.43631e-06
-2.73711e-06
-2.18375e-06
-1.74716e-06
-1.40329e-06
-1.13266e-06
-9.19633e-07
-7.51731e-07
-6.19018e-07
-5.13671e-07
-4.29622e-07
-3.62235e-07
-3.07967e-07
-2.64055e-07
-2.28284e-07
-1.98856e-07
-1.7435e-07
-1.537e-07
-1.36146e-07
-1.21149e-07
-1.08285e-07
-9.71698e-08
-8.7426e-08
-7.86993e-08
-7.06946e-08
-6.32086e-08
-5.61344e-08
-4.94404e-08
-4.313e-08
-3.7203e-08
-3.16295e-08
-2.63436e-08
-2.12504e-08
-1.62535e-08
-1.11592e-08
-7.01732e-09
2.20375e-05
2.20249e-05
2.19925e-05
2.19399e-05
2.18653e-05
2.17642e-05
2.16305e-05
2.14561e-05
2.12304e-05
2.09402e-05
2.05682e-05
2.00932e-05
1.94885e-05
1.87216e-05
1.77534e-05
1.65379e-05
1.50225e-05
1.31496e-05
1.08596e-05
8.09667e-06
4.81714e-06
1.00185e-06
-3.32873e-06
-8.09741e-06
-1.3155e-05
-1.82718e-05
-2.3144e-05
-2.74193e-05
-3.07472e-05
-3.28446e-05
-3.35624e-05
-3.29252e-05
-3.11276e-05
-2.84823e-05
-2.53416e-05
-2.20254e-05
-1.87785e-05
-1.57612e-05
-1.30616e-05
-1.07147e-05
-8.71975e-06
-7.05385e-06
-5.68198e-06
-4.5645e-06
-3.66191e-06
-2.93758e-06
-2.35905e-06
-1.89844e-06
-1.53246e-06
-1.24196e-06
-1.01142e-06
-8.28307e-07
-6.82558e-07
-5.66163e-07
-4.72832e-07
-3.97692e-07
-3.36972e-07
-2.87711e-07
-2.47526e-07
-2.14482e-07
-1.87035e-07
-1.64001e-07
-1.44514e-07
-1.27937e-07
-1.13775e-07
-1.01593e-07
-9.09832e-08
-8.15671e-08
-7.30274e-08
-6.51345e-08
-5.77519e-08
-5.08187e-08
-4.43137e-08
-3.82206e-08
-3.25013e-08
-2.70885e-08
-2.1889e-08
-1.68067e-08
-1.16368e-08
-7.38831e-09
2.1987e-05
2.19727e-05
2.19361e-05
2.18766e-05
2.17926e-05
2.16794e-05
2.15305e-05
2.13374e-05
2.10894e-05
2.07729e-05
2.03704e-05
1.98608e-05
1.92177e-05
1.84094e-05
1.73982e-05
1.61405e-05
1.45869e-05
1.26846e-05
1.03801e-05
7.62495e-06
4.38385e-06
6.45917e-07
-3.56162e-06
-8.15861e-06
-1.29993e-05
-1.78666e-05
-2.2479e-05
-2.65156e-05
-2.96614e-05
-3.1664e-05
-3.23913e-05
-3.18646e-05
-3.02551e-05
-2.78395e-05
-2.49337e-05
-2.18295e-05
-1.87562e-05
-1.58693e-05
-1.32594e-05
-1.09672e-05
-8.99917e-06
-7.33932e-06
-5.95894e-06
-4.8236e-06
-3.89782e-06
-3.1479e-06
-2.54347e-06
-2.05799e-06
-1.66898e-06
-1.35772e-06
-1.1088e-06
-9.09689e-07
-7.50199e-07
-6.22134e-07
-5.18979e-07
-4.35619e-07
-3.68048e-07
-3.13096e-07
-2.68204e-07
-2.31291e-07
-2.00682e-07
-1.75072e-07
-1.53482e-07
-1.35179e-07
-1.19589e-07
-1.06225e-07