/*--------------------------------*- C++ -*----------------------------------*\
| =========                 |                                                 |
| \\      /  F ield         | OpenFOAM: The Open Source CFD Toolbox           |
|  \\    /   O peration     | Version:  2512                                  |
|   \\  /    A nd           | Website:  www.openfoam.com                      |
|    \\/     M anipulation  |                                                 |
\*---------------------------------------------------------------------------*/
FoamFile
{
    version     2.0;
    format      ascii;
    arch        "LSB;label=32;scalar=64";
    class       volScalarField;
    location    "100";
    object      p;
}
// * * * * * * * * * * * * * * * * * * * * * * * * * * * * * * * * * * * * * //

dimensions      [0 2 -2 0 0 0 0];

internalField   nonuniform List<scalar> 
240106
(
9.01859e-05
9.00367e-05
8.96568e-05
8.90468e-05
8.81973e-05
8.70747e-05
8.56316e-05
8.38113e-05
8.15464e-05
7.87566e-05
7.53486e-05
7.12161e-05
6.62421e-05
6.03009e-05
5.32628e-05
4.5001e-05
3.54014e-05
2.43761e-05
1.18801e-05
-2.06825e-06
-1.73668e-05
-3.38096e-05
-5.10707e-05
-6.86975e-05
-8.61166e-05
-0.000102659
-0.000117605
-0.00013025
-0.000139977
-0.000146335
-0.000149102
-0.000148313
-0.000144255
-0.00013742
-0.000128432
-0.000117965
-0.000106666
-9.51073e-05
-8.375e-05
-7.29397e-05
-6.29109e-05
-5.38016e-05
-4.56721e-05
-3.85238e-05
-3.23168e-05
-2.69848e-05
-2.24468e-05
-1.86158e-05
-1.54043e-05
-1.27287e-05
-1.05116e-05
-8.68319e-06
-7.18164e-06
-5.95344e-06
-4.95267e-06
-4.14023e-06
-3.48284e-06
-2.95222e-06
-2.52429e-06
-2.17869e-06
-1.89829e-06
-1.66893e-06
-1.47892e-06
-1.31876e-06
-1.18067e-06
-1.05834e-06
-9.4669e-07
-8.41767e-07
-7.40723e-07
-6.41855e-07
-5.44565e-07
-4.4935e-07
-3.57613e-07
-2.71496e-07
-1.9355e-07
-1.26478e-07
-7.27727e-08
-3.44469e-08
-1.27463e-08
-9.78579e-09
9.02281e-05
9.00802e-05
8.97039e-05
8.90997e-05
8.8258e-05
8.71455e-05
8.57149e-05
8.39097e-05
8.16626e-05
7.88935e-05
7.55088e-05
7.14021e-05
6.64555e-05
6.05423e-05
5.35312e-05
4.52933e-05
3.57115e-05
2.4694e-05
1.21919e-05
-1.7814e-06
-1.71279e-05
-3.3645e-05
-5.10081e-05
-6.87626e-05
-8.63293e-05
-0.000103029
-0.000118129
-0.000130905
-0.000140727
-0.000147131
-0.000149888
-0.000149035
-0.00014487
-0.0001379
-0.000128767
-0.000118158
-0.000106735
-9.50734e-05
-8.36389e-05
-7.27754e-05
-6.27144e-05
-5.35903e-05
-4.54592e-05
-3.83187e-05
-3.21256e-05
-2.68113e-05
-2.22925e-05
-1.84808e-05
-1.5288e-05
-1.26297e-05
-1.04281e-05
-8.61337e-06
-7.12369e-06
-5.90564e-06
-4.91347e-06
-4.10826e-06
-3.45691e-06
-2.93125e-06
-2.50732e-06
-2.16484e-06
-1.88679e-06
-1.65909e-06
-1.47021e-06
-1.31076e-06
-1.17312e-06
-1.05111e-06
-9.39752e-07
-8.35189e-07
-7.34642e-07
-6.36446e-07
-5.40019e-07
-4.45838e-07
-3.55264e-07
-2.70365e-07
-1.93605e-07
-1.27573e-07
-7.46365e-08
-3.66598e-08
-1.47251e-08
-1.0636e-08
9.0311e-05
9.01659e-05
8.97968e-05
8.92039e-05
8.83777e-05
8.72851e-05
8.58792e-05
8.41039e-05
8.18921e-05
7.91638e-05
7.58253e-05
7.17695e-05
6.68773e-05
6.10199e-05
5.40629e-05
4.58727e-05
3.63266e-05
2.53255e-05
1.28119e-05
-1.20992e-06
-1.66508e-05
-3.33146e-05
-5.08796e-05
-6.88876e-05
-8.67483e-05
-0.000103762
-0.000119167
-0.000132208
-0.000142221
-0.000148716
-0.000151453
-0.000150473
-0.000146094
-0.000138854
-0.000129429
-0.000118539
-0.000106868
-9.50037e-05
-8.34164e-05
-7.24478e-05
-6.23236e-05
-5.31703e-05
-4.50363e-05
-3.79115e-05
-3.17464e-05
-2.6467e-05
-2.19863e-05
-1.82131e-05
-1.50571e-05
-1.2433e-05
-1.02623e-05
-8.47471e-06
-7.00857e-06
-5.81068e-06
-4.83563e-06
-4.04484e-06
-3.40555e-06
-2.88985e-06
-2.47396e-06
-2.13778e-06
-1.86447e-06
-1.64018e-06
-1.45361e-06
-1.29566e-06
-1.15897e-06
-1.03762e-06
-9.26853e-07
-8.2298e-07
-7.23353e-07
-6.26388e-07
-5.31528e-07
-4.39226e-07
-3.50767e-07
-2.68093e-07
-1.93501e-07
-1.29377e-07
-7.78557e-08
-4.05403e-08
-1.82288e-08
-1.23704e-08
9.04328e-05
9.02919e-05
8.99333e-05
8.93571e-05
8.85537e-05
8.74903e-05
8.61208e-05
8.43896e-05
8.22299e-05
7.9562e-05
7.62918e-05
7.23114e-05
6.74999e-05
6.17254e-05
5.4849e-05
4.67305e-05
3.72385e-05
2.62632e-05
1.37343e-05
-3.57572e-07
-1.59364e-05
-3.28165e-05
-5.06803e-05
-6.90652e-05
-8.73639e-05
-0.000104847
-0.00012071
-0.000134148
-0.000144447
-0.00015108
-0.000153786
-0.000152614
-0.000147913
-0.000140267
-0.000130406
-0.000119097
-0.000107055
-9.48914e-05
-8.30787e-05
-7.1956e-05
-6.17398e-05
-5.25452e-05
-4.44081e-05
-3.73077e-05
-3.11847e-05
-2.59576e-05
-2.15337e-05
-1.78175e-05
-1.47163e-05
-1.21428e-05
-1.00177e-05
-8.27023e-06
-6.83889e-06
-5.67079e-06
-4.72102e-06
-3.95158e-06
-3.33014e-06
-2.82917e-06
-2.42518e-06
-2.09831e-06
-1.832e-06
-1.61272e-06
-1.42956e-06
-1.27381e-06
-1.13852e-06
-1.01814e-06
-9.08204e-07
-8.0529e-07
-7.06928e-07
-6.11643e-07
-5.18924e-07
-4.29192e-07
-3.43627e-07
-2.64002e-07
-1.92381e-07
-1.30873e-07
-8.12954e-08
-4.49087e-08
-2.21643e-08
-1.41412e-08
9.05905e-05
9.04549e-05
9.011e-05
8.95554e-05
8.87816e-05
8.77562e-05
8.64341e-05
8.47601e-05
8.26683e-05
8.0079e-05
7.6898e-05
7.30162e-05
6.83104e-05
6.2645e-05
5.5875e-05
4.7852e-05
3.8433e-05
2.74941e-05
1.49483e-05
7.6818e-07
-1.49882e-05
-3.21491e-05
-5.04036e-05
-6.92836e-05
-8.81604e-05
-0.000106265
-0.000122737
-0.000136705
-0.000147386
-0.000154202
-0.000156866
-0.000155437
-0.000150304
-0.000142117
-0.000131677
-0.000119812
-0.000107285
-9.47285e-05
-8.26228e-05
-7.13013e-05
-6.0968e-05
-5.17221e-05
-4.35837e-05
-3.65171e-05
-3.04506e-05
-2.52928e-05
-2.09436e-05
-1.73024e-05
-1.42727e-05
-1.17654e-05
-9.69972e-06
-8.00464e-06
-6.61862e-06
-5.48928e-06
-4.57243e-06
-3.83077e-06
-3.23259e-06
-2.75083e-06
-2.36235e-06
-2.04762e-06
-1.79045e-06
-1.57774e-06
-1.39908e-06
-1.2463e-06
-1.11295e-06
-9.9393e-07
-8.85184e-07
-7.83583e-07
-6.8688e-07
-5.93739e-07
-5.037e-07
-4.17146e-07
-3.35133e-07
-2.59225e-07
-1.91208e-07
-1.32858e-07
-8.56172e-08
-5.03536e-08
-2.71245e-08
-1.65787e-08
9.078e-05
9.0651e-05
9.03226e-05
8.97941e-05
8.90559e-05
8.80765e-05
8.68115e-05
8.52069e-05
8.31973e-05
8.07034e-05
7.76307e-05
7.3869e-05
6.92925e-05
6.37609e-05
5.71222e-05
4.92177e-05
3.9891e-05
2.90008e-05
1.64394e-05
2.1568e-06
-1.38112e-05
-3.13111e-05
-5.00413e-05
-6.9528e-05
-8.91173e-05
-0.000107992
-0.000125221
-0.000139849
-0.000151009
-0.000158054
-0.000160665
-0.000158912
-0.000153238
-0.000144375
-0.000133215
-0.000120665
-0.000107541
-9.45057e-05
-8.20458e-05
-7.04863e-05
-6.00149e-05
-5.0711e-05
-4.25748e-05
-3.55523e-05
-2.95569e-05
-2.4485e-05
-2.02276e-05
-1.6678e-05
-1.37357e-05
-1.13089e-05
-9.31543e-06
-7.68379e-06
-6.3526e-06
-5.27011e-06
-4.39301e-06
-3.68489e-06
-3.11479e-06
-2.65621e-06
-2.28644e-06
-1.98636e-06
-1.74021e-06
-1.53544e-06
-1.36226e-06
-1.21312e-06
-1.08221e-06
-9.64943e-07
-8.57722e-07
-7.57761e-07
-6.6306e-07
-5.72438e-07
-4.8549e-07
-4.02559e-07
-3.24556e-07
-2.52812e-07
-1.88803e-07
-1.33935e-07
-8.92514e-08
-5.52148e-08
-3.15118e-08
-1.84447e-08
9.09967e-05
9.08751e-05
9.05656e-05
9.00671e-05
8.93699e-05
8.84433e-05
8.72441e-05
8.57194e-05
8.38045e-05
8.14208e-05
7.84736e-05
7.48513e-05
7.04253e-05
6.50503e-05
5.85661e-05
5.08027e-05
4.15877e-05
3.07598e-05
1.81871e-05
3.79259e-06
-1.24147e-05
-3.03038e-05
-4.95856e-05
-6.97816e-05
-9.02095e-05
-0.000109995
-0.000128126
-0.000143543
-0.000155276
-0.000162596
-0.000165142
-0.000162997
-0.000156672
-0.000147001
-0.000134985
-0.000121626
-0.000107804
-9.42129e-05
-8.13455e-05
-6.95156e-05
-5.88904e-05
-4.95253e-05
-4.1397e-05
-3.44301e-05
-2.85202e-05
-2.35499e-05
-1.94004e-05
-1.59578e-05
-1.3117e-05
-1.07835e-05
-8.8736e-06
-7.31519e-06
-6.04715e-06
-5.01856e-06
-4.18715e-06
-3.51759e-06
-2.97981e-06
-2.54793e-06
-2.19974e-06
-1.91657e-06
-1.68318e-06
-1.48765e-06
-1.3209e-06
-1.17614e-06
-1.04823e-06
-9.33206e-07
-8.27934e-07
-7.30009e-07
-6.37697e-07
-5.49976e-07
-4.665e-07
-3.87565e-07
-3.13926e-07
-2.46661e-07
-1.86915e-07
-1.35709e-07
-9.36839e-08
-6.09029e-08
-3.66929e-08
-2.09932e-08
9.12351e-05
9.11218e-05
9.08332e-05
9.03678e-05
8.97159e-05
8.88478e-05
8.77215e-05
8.62853e-05
8.44758e-05
8.22148e-05
7.94076e-05
7.59414e-05
7.16845e-05
6.64862e-05
6.01778e-05
5.25764e-05
4.34923e-05
3.27414e-05
2.01647e-05
5.65423e-06
-1.08124e-05
-2.91316e-05
-4.90301e-05
-7.00264e-05
-9.14077e-05
-0.000112237
-0.000131405
-0.000147735
-0.000160133
-0.000167772
-0.000170241
-0.000167639
-0.000160556
-0.000149949
-0.000136948
-0.000122666
-0.000108055
-9.38414e-05
-8.05229e-05
-6.83979e-05
-5.76087e-05
-4.81832e-05
-4.00703e-05
-3.31709e-05
-2.73605e-05
-2.25066e-05
-1.84792e-05
-1.51571e-05
-1.24302e-05
-1.0201e-05
-8.38417e-06
-6.9071e-06
-5.70903e-06
-4.74003e-06
-3.95912e-06
-3.33218e-06
-2.83014e-06
-2.42781e-06
-2.10352e-06
-1.83905e-06
-1.6198e-06
-1.43452e-06
-1.27496e-06
-1.13514e-06
-1.01068e-06
-8.98255e-07
-7.95252e-07
-6.99651e-07
-6.09988e-07
-5.25409e-07
-4.45626e-07
-3.70881e-07
-3.01766e-07
-2.39093e-07
-1.83666e-07
-1.36121e-07
-9.67046e-08
-6.51232e-08
-4.04295e-08
-2.23821e-08
9.14892e-05
9.13847e-05
9.11185e-05
9.06886e-05
9.00853e-05
8.92799e-05
8.8232e-05
8.68911e-05
8.51951e-05
8.30666e-05
8.04109e-05
7.71142e-05
7.30418e-05
6.80373e-05
6.19231e-05
5.45026e-05
4.55675e-05
3.49092e-05
2.23386e-05
7.71322e-06
-9.02496e-06
-2.7804e-05
-4.83711e-05
-7.02441e-05
-9.26792e-05
-0.00011467
-0.000135001
-0.00015236
-0.000165512
-0.000173511
-0.00017589
-0.000172767
-0.000164824
-0.000153161
-0.000139058
-0.000123752
-0.000108274
-9.33846e-05
-7.95823e-05
-6.7146e-05
-5.61889e-05
-4.67071e-05
-3.86193e-05
-3.17995e-05
-2.61019e-05
-2.13774e-05
-1.74845e-05
-1.42941e-05
-1.16913e-05
-9.57522e-06
-7.8591e-06
-6.46976e-06
-5.34695e-06
-4.44194e-06
-3.71523e-06
-3.13409e-06
-2.6705e-06
-2.30003e-06
-2.0015e-06
-1.75724e-06
-1.55326e-06
-1.37913e-06
-1.22744e-06
-1.09311e-06
-9.72565e-07
-8.63148e-07
-7.62775e-07
-6.69812e-07
-5.83072e-07
-5.01868e-07
-4.25968e-07
-3.55562e-07
-2.91072e-07
-2.33041e-07
-1.81926e-07
-1.37985e-07
-1.01092e-07
-7.06268e-08
-4.53923e-08
-2.49275e-08
9.17524e-05
9.16572e-05
9.14143e-05
9.10214e-05
9.04688e-05
8.9729e-05
8.87629e-05
8.75219e-05
8.5945e-05
8.39557e-05
8.14598e-05
7.83424e-05
7.44659e-05
6.96684e-05
6.3763e-05
5.65394e-05
4.77697e-05
3.72194e-05
2.46671e-05
9.93301e-06
-7.08041e-06
-2.63375e-05
-4.761e-05
-7.04186e-05
-9.39889e-05
-0.000117242
-0.000138846
-0.000157337
-0.000171321
-0.000179721
-0.000181998
-0.000178293
-0.000169397
-0.00015657
-0.000141262
-0.000124849
-0.000108443
-9.28403e-05
-7.85338e-05
-6.5779e-05
-5.4656e-05
-4.51255e-05
-3.70733e-05
-3.03449e-05
-2.47716e-05
-2.01874e-05
-1.64387e-05
-1.33887e-05
-1.09173e-05
-8.92075e-06
-7.31054e-06
-6.01313e-06
-4.96895e-06
-4.13067e-06
-3.46045e-06
-2.92706e-06
-2.50361e-06
-2.16639e-06
-1.89475e-06
-1.67154e-06
-1.48343e-06
-1.32085e-06
-1.17735e-06
-1.04876e-06
-9.32343e-07
-8.26118e-07
-7.28514e-07
-6.38282e-07
-5.54503e-07
-4.7666e-07
-4.04586e-07
-3.38422e-07
-2.78427e-07
-2.24879e-07
-1.77895e-07
-1.37366e-07
-1.02822e-07
-7.33735e-08
-4.76924e-08
-2.53845e-08
9.20181e-05
9.19323e-05
9.17131e-05
9.13579e-05
9.08568e-05
9.01837e-05
8.93012e-05
8.81621e-05
8.67068e-05
8.48603e-05
8.25287e-05
7.95961e-05
7.59225e-05
7.13407e-05
6.56545e-05
5.86399e-05
5.0049e-05
3.96209e-05
2.71004e-05
1.22682e-05
-5.01592e-06
-2.47564e-05
-4.67543e-05
-7.05369e-05
-9.5301e-05
-0.000119894
-0.000142858
-0.000162568
-0.000177453
-0.000186285
-0.000188451
-0.000184113
-0.000174182
-0.0001601
-0.000143507
-0.000125924
-0.000108551
-9.2212e-05
-7.73939e-05
-6.43225e-05
-5.3041e-05
-4.34721e-05
-3.54666e-05
-2.88403e-05
-2.34008e-05
-1.89649e-05
-1.53673e-05
-1.24632e-05
-1.01278e-05
-8.25437e-06
-6.75292e-06
-5.54958e-06
-4.58563e-06
-3.81533e-06
-3.20268e-06
-2.71806e-06
-2.33567e-06
-2.0325e-06
-1.78838e-06
-1.58668e-06
-1.4148e-06
-1.26405e-06
-1.12898e-06
-1.00641e-06
-8.94405e-07
-7.91649e-07
-6.97057e-07
-6.09735e-07
-5.29017e-07
-4.54556e-07
-3.86258e-07
-3.24234e-07
-2.68596e-07
-2.19371e-07
-1.76354e-07
-1.3909e-07
-1.06792e-07
-7.83287e-08
-5.22231e-08
-2.79666e-08
9.22795e-05
9.22029e-05
9.20072e-05
9.16893e-05
9.12395e-05
9.06326e-05
8.9833e-05
8.87953e-05
8.74615e-05
8.57578e-05
8.35907e-05
8.08441e-05
7.73755e-05
7.30126e-05
6.75508e-05
6.07524e-05
5.235e-05
4.20557e-05
2.95806e-05
1.46643e-05
-2.87825e-06
-2.30949e-05
-4.58198e-05
-7.05911e-05
-9.65802e-05
-0.00012256
-0.000146945
-0.000167937
-0.000183774
-0.000193065
-0.000195111
-0.000190098
-0.000179071
-0.000163669
-0.000145736
-0.000126946
-0.000108587
-9.15104e-05
-7.61867e-05
-6.28093e-05
-5.13816e-05
-4.17863e-05
-3.3838e-05
-2.73222e-05
-2.20229e-05
-1.77398e-05
-1.42961e-05
-1.15398e-05
-9.34159e-06
-7.59183e-06
-6.19911e-06
-5.0894e-06
-4.20504e-06
-3.50205e-06
-2.94642e-06
-2.51015e-06
-2.16853e-06
-1.89915e-06
-1.68224e-06
-1.50169e-06
-1.34563e-06
-1.20635e-06
-1.07944e-06
-9.627e-07
-8.55019e-07
-7.55678e-07
-6.64031e-07
-5.79497e-07
-5.01638e-07
-4.30268e-07
-3.65382e-07
-3.07081e-07
-2.55358e-07
-2.10021e-07
-1.70571e-07
-1.36235e-07
-1.05946e-07
-7.83865e-08
-5.20832e-08
-2.68489e-08
9.25297e-05
9.24621e-05
9.2289e-05
9.20072e-05
9.16068e-05
9.1064e-05
9.03449e-05
8.94055e-05
8.81897e-05
8.66249e-05
8.46186e-05
8.20541e-05
7.87872e-05
7.4641e-05
6.94028e-05
6.2822e-05
5.46123e-05
4.44601e-05
3.20424e-05
1.7058e-05
-7.23811e-07
-2.13966e-05
-4.4831e-05
-7.058e-05
-9.77937e-05
-0.000125173
-0.000151005
-0.00017331
-0.000190128
-0.000199895
-0.000201816
-0.000196104
-0.000183943
-0.000167187
-0.00014789
-0.000127888
-0.000108553
-9.07544e-05
-7.49445e-05
-6.12799e-05
-4.9722e-05
-4.01129e-05
-3.22307e-05
-2.58309e-05
-2.06744e-05
-1.65445e-05
-1.32538e-05
-1.06436e-05
-8.58033e-06
-6.95176e-06
-5.66513e-06
-4.64643e-06
-3.83916e-06
-3.20135e-06
-2.70103e-06
-2.31183e-06
-2.01003e-06
-1.77366e-06
-1.58329e-06
-1.42328e-06
-1.28251e-06
-1.15428e-06
-1.03529e-06
-9.24308e-07
-8.21018e-07
-7.2525e-07
-6.36723e-07
-5.55104e-07
-4.80144e-07
-4.11804e-07
-3.5017e-07
-2.9536e-07
-2.47284e-07
-2.05565e-07
-1.69449e-07
-1.37881e-07
-1.09543e-07
-8.29445e-08
-5.65121e-08
-2.98942e-08
9.27622e-05
9.2703e-05
9.25512e-05
9.23033e-05
9.19493e-05
9.14668e-05
9.08233e-05
8.99768e-05
8.88724e-05
8.74391e-05
8.55852e-05
8.31942e-05
8.012e-05
7.61819e-05
7.11598e-05
6.47914e-05
5.67727e-05
4.67656e-05
3.44147e-05
1.9379e-05
1.38223e-06
-1.97151e-05
-4.3822e-05
-7.05103e-05
-9.89131e-05
-0.000127665
-0.000154926
-0.00017854
-0.000196341
-0.000206585
-0.000208381
-0.000201964
-0.000188666
-0.000170559
-0.000149917
-0.000128732
-0.000108456
-8.99712e-05
-7.37071e-05
-5.97807e-05
-4.81111e-05
-3.84999e-05
-3.06899e-05
-2.44074e-05
-1.93916e-05
-1.54107e-05
-1.22674e-05
-9.79714e-06
-7.8626e-06
-6.34917e-06
-5.16286e-06
-4.22975e-06
-3.4947e-06
-2.91784e-06
-2.46934e-06
-2.12438e-06
-1.86007e-06
-1.65474e-06
-1.48915e-06
-1.34807e-06
-1.22117e-06
-1.10277e-06
-9.90705e-07
-8.84738e-07
-7.85294e-07
-6.92694e-07
-6.06949e-07
-5.27903e-07
-4.55445e-07
-3.89654e-07
-3.30711e-07
-2.78773e-07
-2.33699e-07
-1.94971e-07
-1.61625e-07
-1.32366e-07
-1.05671e-07
-7.99372e-08
-5.36963e-08
-2.71005e-08
9.29709e-05
9.29193e-05
9.27869e-05
9.25697e-05
9.2258e-05
9.18303e-05
9.12558e-05
9.04939e-05
8.94913e-05
8.81784e-05
8.64645e-05
8.42331e-05
8.1337e-05
7.7592e-05
7.27717e-05
6.66033e-05
5.8767e-05
4.89019e-05
3.66229e-05
2.15514e-05
3.36801e-06
-1.81117e-05
-4.28357e-05
-7.03966e-05
-9.99158e-05
-0.000129968
-0.000158594
-0.000183467
-0.00020222
-0.000212929
-0.000214603
-0.000207501
-0.0001931
-0.000173691
-0.000151764
-0.000129464
-0.000108311
-8.91961e-05
-7.25214e-05
-5.83643e-05
-4.66024e-05
-3.6999e-05
-2.92634e-05
-2.30951e-05
-1.82131e-05
-1.4372e-05
-1.13661e-05
-9.02567e-06
-7.21024e-06
-5.80298e-06
-4.70874e-06
-3.85383e-06
-3.18457e-06
-2.66324e-06
-2.26214e-06
-1.95792e-06
-1.72829e-06
-1.55175e-06
-1.40907e-06
-1.28535e-06
-1.171e-06
-1.06141e-06
-9.55522e-07
-8.54101e-07
-7.58275e-07
-6.68789e-07
-5.85869e-07
-5.09465e-07
-4.39539e-07
-3.76257e-07
-3.1988e-07
-2.70611e-07
-2.28286e-07
-1.92289e-07
-1.61487e-07
-1.34387e-07
-1.09293e-07
-8.44893e-08
-5.8424e-08
-3.0949e-08
9.31501e-05
9.31052e-05
9.29896e-05
9.27993e-05
9.25246e-05
9.21449e-05
9.16307e-05
9.09429e-05
9.00297e-05
8.88227e-05
8.72321e-05
8.51417e-05
8.24034e-05
7.88302e-05
7.41905e-05
6.82024e-05
6.05321e-05
5.07993e-05
3.85918e-05
2.34978e-05
5.15814e-06
-1.66532e-05
-4.19214e-05
-7.02609e-05
-0.000100786
-0.000132019
-0.000161895
-0.000187928
-0.000207564
-0.000218706
-0.000220268
-0.000212527
-0.000197103
-0.000176493
-0.00015339
-0.000130078
-0.000108141
-8.84702e-05
-7.14383e-05
-5.70851e-05
-4.52498e-05
-3.56608e-05
-2.79971e-05
-2.19342e-05
-1.71735e-05
-1.34577e-05
-1.05741e-05
-8.34897e-06
-6.63895e-06
-5.32527e-06
-4.31178e-06
-3.52501e-06
-2.91277e-06
-2.43953e-06
-2.07959e-06
-1.81089e-06
-1.61164e-06
-1.46024e-06
-1.33736e-06
-1.22833e-06
-1.12424e-06
-1.02151e-06
-9.20205e-07
-8.22026e-07
-7.2878e-07
-6.41583e-07
-5.60812e-07
-4.86459e-07
-4.18508e-07
-3.57167e-07
-3.02753e-07
-2.55517e-07
-2.15291e-07
-1.81389e-07
-1.52549e-07
-1.27129e-07
-1.03302e-07
-7.9312e-08
-5.37772e-08
-2.71256e-08
9.3295e-05
9.32556e-05
9.3154e-05
9.29859e-05
9.27417e-05
9.24018e-05
9.19377e-05
9.13115e-05
9.04726e-05
8.93538e-05
8.78661e-05
8.58937e-05
8.32878e-05
7.98593e-05
7.53722e-05
6.95373e-05
6.20096e-05
5.23919e-05
4.02499e-05
2.5143e-05
6.67807e-06
-1.54074e-05
-4.11318e-05
-7.01305e-05
-0.000101514
-0.000133762
-0.000164721
-0.000191764
-0.000212173
-0.000223697
-0.000225161
-0.000216859
-0.000200536
-0.000178878
-0.000154756
-0.000130579
-0.000107976
-8.7838e-05
-7.05104e-05
-5.59981e-05
-4.4107e-05
-3.45352e-05
-2.69361e-05
-2.09647e-05
-1.63076e-05
-1.26981e-05
-9.91779e-06
-7.78975e-06
-6.16839e-06
-4.93324e-06
-3.98722e-06
-3.25712e-06
-2.69217e-06
-2.25884e-06
-1.93328e-06
-1.69454e-06
-1.5211e-06
-1.39113e-06
-1.28507e-06
-1.18835e-06
-1.09267e-06
-9.95373e-07
-8.9757e-07
-8.01861e-07
-7.10669e-07
-6.2543e-07
-5.46626e-07
-4.7424e-07
-4.08227e-07
-3.48793e-07
-2.96283e-07
-2.50975e-07
-2.12702e-07
-1.80726e-07
-1.53691e-07
-1.29836e-07
-1.07232e-07
-8.40624e-08
-5.88692e-08
-3.16505e-08
9.34015e-05
9.33663e-05
9.32754e-05
9.31244e-05
9.29036e-05
9.25941e-05
9.21683e-05
9.15894e-05
9.08076e-05
8.97566e-05
8.83482e-05
8.64669e-05
8.39634e-05
8.06471e-05
7.62788e-05
7.05637e-05
6.31479e-05
5.36216e-05
4.1533e-05
2.64188e-05
7.85913e-06
-1.4438e-05
-4.05182e-05
-7.00348e-05
-0.000102097
-0.000135152
-0.000166975
-0.00019483
-0.000215862
-0.000227696
-0.00022908
-0.000220325
-0.000203275
-0.000180772
-0.000155836
-0.000130971
-0.000107845
-8.73431e-05
-6.97869e-05
-5.51533e-05
-4.32214e-05
-3.36653e-05
-2.61181e-05
-2.02189e-05
-1.56427e-05
-1.21156e-05
-9.41518e-06
-7.36212e-06
-5.80914e-06
-4.63439e-06
-3.73997e-06
-3.05286e-06
-2.52354e-06
-2.12022e-06
-1.82062e-06
-1.60467e-06
-1.45094e-06
-1.33728e-06
-1.2438e-06
-1.15595e-06
-1.06589e-06
-9.71771e-07
-8.75616e-07
-7.80828e-07
-6.90376e-07
-6.05979e-07
-5.28191e-07
-4.5696e-07
-3.92179e-07
-3.34016e-07
-2.82812e-07
-2.38851e-07
-2.01957e-07
-1.71352e-07
-1.45605e-07
-1.22872e-07
-1.01158e-07
-7.86546e-08
-5.40882e-08
-2.79547e-08
9.34666e-05
9.34342e-05
9.33504e-05
9.32106e-05
9.30054e-05
9.27161e-05
9.23159e-05
9.17685e-05
9.10249e-05
9.00193e-05
8.8664e-05
8.68438e-05
8.44091e-05
8.11683e-05
7.68801e-05
7.12459e-05
6.39058e-05
5.44414e-05
4.23887e-05
2.72692e-05
8.644e-06
-1.37992e-05
-4.01253e-05
-7.00007e-05
-0.000102534
-0.000136152
-0.000168581
-0.000197005
-0.000218475
-0.000230527
-0.000231854
-0.000222777
-0.000205215
-0.000182117
-0.00015661
-0.000131266
-0.000107777
-8.70239e-05
-6.93105e-05
-5.45936e-05
-4.26336e-05
-3.3088e-05
-2.5576e-05
-1.97254e-05
-1.52036e-05
-1.17318e-05
-9.08507e-06
-7.08244e-06
-5.57555e-06
-4.44146e-06
-3.58163e-06
-2.92317e-06
-2.41747e-06
-2.03408e-06
-1.7519e-06
-1.55146e-06
-1.41133e-06
-1.30897e-06
-1.22413e-06
-1.14216e-06
-1.05555e-06
-9.63055e-07
-8.67424e-07
-7.72707e-07
-6.82329e-07
-5.9824e-07
-5.21047e-07
-4.50653e-07
-3.86873e-07
-3.29811e-07
-2.79772e-07
-2.37018e-07
-2.01351e-07
-1.7195e-07
-1.4733e-07
-1.25581e-07
-1.04662e-07
-8.27463e-08
-5.84979e-08
-3.2004e-08
9.34881e-05
9.3457e-05
9.33765e-05
9.3242e-05
9.3044e-05
9.27643e-05
9.23761e-05
9.18435e-05
9.11178e-05
9.01337e-05
8.88036e-05
8.70124e-05
8.46104e-05
8.14056e-05
7.71553e-05
7.15592e-05
6.42544e-05
5.48181e-05
4.27802e-05
2.76541e-05
8.99168e-06
-1.353e-05
-3.99858e-05
-7.00487e-05
-0.000102827
-0.000136738
-0.00016948
-0.000198199
-0.000219897
-0.00023206
-0.000233356
-0.000224109
-0.000206277
-0.000182869
-0.000157064
-0.000131471
-0.000107793
-8.69086e-05
-6.91116e-05
-5.43489e-05
-4.23713e-05
-3.28279e-05
-2.53307e-05
-1.9502e-05
-1.5005e-05
-1.15586e-05
-8.93663e-06
-6.95755e-06
-5.47229e-06
-4.35724e-06
-3.5134e-06
-2.86788e-06
-2.37263e-06
-1.99799e-06
-1.72357e-06
-1.53021e-06
-1.39638e-06
-1.29921e-06
-1.21805e-06
-1.13815e-06
-1.05211e-06
-9.59066e-07
-8.62253e-07
-7.66177e-07
-6.74596e-07
-5.89641e-07
-5.11966e-07
-4.41436e-07
-3.77792e-07
-3.21065e-07
-2.71502e-07
-2.29322e-07
-1.94284e-07
-1.65528e-07
-1.4152e-07
-1.20311e-07
-9.9843e-08
-7.83164e-08
-5.45502e-08
-2.90007e-08
9.34652e-05
9.34339e-05
9.33528e-05
9.32173e-05
9.30181e-05
9.27367e-05
9.23466e-05
9.18116e-05
9.10833e-05
9.00959e-05
8.87622e-05
8.69669e-05
8.45602e-05
8.13501e-05
7.7094e-05
7.14913e-05
6.41794e-05
5.47351e-05
4.26887e-05
2.75535e-05
8.88143e-06
-1.36503e-05
-4.01161e-05
-7.01889e-05
-0.000102977
-0.000136895
-0.000169643
-0.000198366
-0.000220065
-0.000232225
-0.000233516
-0.000224262
-0.000206422
-0.000183005
-0.000157192
-0.00013159
-0.000107905
-8.70117e-05
-6.92062e-05
-5.44351e-05
-4.24493e-05
-3.28983e-05
-2.53941e-05
-1.95587e-05
-1.50556e-05
-1.16037e-05
-8.97683e-06
-6.99363e-06
-5.50492e-06
-4.38687e-06
-3.5402e-06
-2.89194e-06
-2.3941e-06
-2.01723e-06
-1.7411e-06
-1.54657e-06
-1.41197e-06
-1.3141e-06
-1.23206e-06
-1.15087e-06
-1.06309e-06
-9.6797e-07
-8.68932e-07
-7.70709e-07
-6.77246e-07
-5.9079e-07
-5.12041e-07
-4.40841e-07
-3.76875e-07
-3.20103e-07
-2.70697e-07
-2.28811e-07
-1.94149e-07
-1.65801e-07
-1.42196e-07
-1.21361e-07
-1.01227e-07
-8.00016e-08
-5.64794e-08
-3.09326e-08
9.33979e-05
9.33648e-05
9.32792e-05
9.31366e-05
9.29277e-05
9.26336e-05
9.22276e-05
9.16732e-05
9.09214e-05
8.99063e-05
8.85401e-05
8.67075e-05
8.42588e-05
8.10024e-05
7.66966e-05
7.10429e-05
6.36814e-05
5.41935e-05
4.21155e-05
2.69687e-05
8.31477e-06
-1.41581e-05
-4.05142e-05
-7.04188e-05
-0.000102979
-0.000136621
-0.000169067
-0.000197502
-0.000218975
-0.000231019
-0.000232331
-0.000223233
-0.000205646
-0.000182523
-0.000156991
-0.000131623
-0.00010811
-8.73317e-05
-6.95929e-05
-5.48508e-05
-4.28667e-05
-3.32984e-05
-2.57653e-05
-1.98951e-05
-1.5355e-05
-1.18666e-05
-9.20511e-06
-7.19005e-06
-5.6727e-06
-4.52942e-06
-3.66095e-06
-2.99407e-06
-2.4804e-06
-2.09007e-06
-1.80243e-06
-1.5981e-06
-1.45518e-06
-1.3503e-06
-1.26233e-06
-1.17607e-06
-1.08383e-06
-9.84711e-07
-8.82013e-07
-7.80451e-07
-6.84001e-07
-5.94969e-07
-5.14094e-07
-4.41231e-07
-3.76033e-07
-3.18399e-07
-2.68425e-07
-2.26182e-07
-1.91303e-07
-1.62825e-07
-1.39145e-07
-1.18279e-07
-9.81651e-08
-7.70422e-08
-5.37875e-08
-2.88884e-08
9.32875e-05
9.32511e-05
9.31573e-05
9.30016e-05
9.27746e-05
9.24572e-05
9.20218e-05
9.14313e-05
9.0636e-05
8.95693e-05
8.81428e-05
8.6241e-05
8.37143e-05
8.03721e-05
7.59748e-05
7.02276e-05
6.27764e-05
5.32115e-05
4.10811e-05
2.59222e-05
7.3154e-06
-1.50304e-05
-4.11596e-05
-7.07238e-05
-0.00010283
-0.000135923
-0.000167776
-0.000195648
-0.000216683
-0.000228506
-0.000229865
-0.000221075
-0.000203986
-0.000181441
-0.000156465
-0.00013156
-0.000108394
-8.78509e-05
-7.02531e-05
-5.55782e-05
-4.36065e-05
-3.40131e-05
-2.64312e-05
-2.04997e-05
-1.58935e-05
-1.2339e-05
-9.61444e-06
-7.54085e-06
-5.97057e-06
-4.78067e-06
-3.87209e-06
-3.1713e-06
-2.62905e-06
-2.21444e-06
-1.90595e-06
-1.6836e-06
-1.52524e-06
-1.40742e-06
-1.30888e-06
-1.21414e-06
-1.11512e-06
-1.01043e-06
-9.03014e-07
-7.97298e-07
-6.9714e-07
-6.04834e-07
-5.2116e-07
-4.46007e-07
-3.7903e-07
-3.20076e-07
-2.69158e-07
-2.26249e-07
-1.90898e-07
-1.62078e-07
-1.38159e-07
-1.1715e-07
-9.70029e-08
-7.59704e-08
-5.29306e-08
-2.8423e-08
9.31363e-05
9.30953e-05
9.29897e-05
9.28152e-05
9.25624e-05
9.22115e-05
9.1734e-05
9.10917e-05
9.0234e-05
8.90934e-05
8.75807e-05
8.55799e-05
8.29419e-05
7.94775e-05
7.49505e-05
6.90713e-05
6.14948e-05
5.1824e-05
3.96246e-05
2.44564e-05
5.92707e-06
-1.62248e-05
-4.20159e-05
-7.10793e-05
-0.000102522
-0.000134822
-0.00016582
-0.000192886
-0.000213299
-0.000224809
-0.000226239
-0.000217891
-0.000201514
-0.000179799
-0.000155622
-0.00013139
-0.000108733
-8.85386e-05
-7.11539e-05
-5.6585e-05
-4.46394e-05
-3.50163e-05
-2.73695e-05
-2.13538e-05
-1.66555e-05
-1.30083e-05
-1.01947e-05
-8.03818e-06
-6.39269e-06
-5.1364e-06
-4.17075e-06
-3.42174e-06
-2.83896e-06
-2.38991e-06
-2.05174e-06
-1.80363e-06
-1.62313e-06
-1.48676e-06
-1.37318e-06
-1.2666e-06
-1.15838e-06
-1.04644e-06
-9.33047e-07
-8.22152e-07
-7.1735e-07
-6.2086e-07
-5.33501e-07
-4.55222e-07
-3.85701e-07
-3.24748e-07
-2.7229e-07
-2.28191e-07
-1.91901e-07
-1.62328e-07
-1.37813e-07
-1.1637e-07
-9.59689e-08
-7.4872e-08
-5.19504e-08
-2.77366e-08
9.29478e-05
9.29008e-05
9.27801e-05
9.25817e-05
9.22959e-05
9.19023e-05
9.13711e-05
9.06629e-05
8.97258e-05
8.84911e-05
8.68688e-05
8.47424e-05
8.19635e-05
7.83449e-05
7.36547e-05
6.76107e-05
5.98791e-05
5.00795e-05
3.78001e-05
2.26295e-05
4.2095e-06
-1.76844e-05
-4.30352e-05
-7.14546e-05
-0.000102053
-0.000133349
-0.000163273
-0.000189333
-0.000208974
-0.000220099
-0.00022162
-0.000213823
-0.000198332
-0.000177652
-0.00015448
-0.000131101
-0.000109095
-8.93535e-05
-7.22504e-05
-5.78265e-05
-4.5923e-05
-3.62696e-05
-2.85462e-05
-2.24277e-05
-1.76153e-05
-1.38523e-05
-1.09267e-05
-8.66551e-06
-6.92478e-06
-5.58425e-06
-4.54598e-06
-3.73556e-06
-3.10106e-06
-2.60807e-06
-2.23201e-06
-1.95101e-06
-1.74224e-06
-1.5822e-06
-1.4495e-06
-1.32799e-06
-1.20834e-06
-1.08756e-06
-9.67044e-07
-8.50086e-07
-7.39888e-07
-6.38538e-07
-5.46873e-07
-4.64912e-07
-3.92367e-07
-3.29014e-07
-2.74689e-07
-2.29134e-07
-1.91695e-07
-1.6121e-07
-1.35995e-07
-1.14073e-07
-9.34331e-08
-7.23469e-08
-4.96773e-08
-2.6064e-08
9.27262e-05
9.26721e-05
9.25335e-05
9.23065e-05
9.19816e-05
9.15371e-05
9.09421e-05
9.01556e-05
8.91242e-05
8.7778e-05
8.6026e-05
8.37514e-05
8.08066e-05
7.70072e-05
7.21265e-05
6.58914e-05
5.7982e-05
4.80376e-05
3.56733e-05
2.05113e-05
2.23336e-06
-1.93432e-05
-4.41638e-05
-7.18176e-05
-0.000101422
-0.000131546
-0.000160228
-0.000185132
-0.000203891
-0.000214579
-0.000216207
-0.00020904
-0.000194563
-0.000175073
-0.000153065
-0.000130683
-0.000109449
-9.02508e-05
-7.34919e-05
-5.92513e-05
-4.74087e-05
-3.77291e-05
-2.99225e-05
-2.36883e-05
-1.87451e-05
-1.48479e-05
-1.1792e-05
-9.40825e-06
-7.55578e-06
-6.11611e-06
-4.99218e-06
-4.1091e-06
-3.41334e-06
-2.8683e-06
-2.44741e-06
-2.12756e-06
-1.88544e-06
-1.69749e-06
-1.54225e-06
-1.40317e-06
-1.27011e-06
-1.13904e-06
-1.01034e-06
-8.86488e-07
-7.70198e-07
-6.63364e-07
-5.66817e-07
-4.80636e-07
-4.04566e-07
-3.3835e-07
-2.81727e-07
-2.34322e-07
-1.95372e-07
-1.63654e-07
-1.37471e-07
-1.14864e-07
-9.38478e-08
-7.26851e-08
-5.01522e-08
-2.6647e-08
9.24767e-05
9.24146e-05
9.22556e-05
9.19962e-05
9.16269e-05
9.11249e-05
9.04575e-05
8.95824e-05
8.84446e-05
8.69727e-05
8.50746e-05
8.26336e-05
7.95031e-05
7.55022e-05
7.04105e-05
6.39654e-05
5.5863e-05
4.57652e-05
3.33171e-05
1.81785e-05
7.47296e-08
-2.11318e-05
-4.53471e-05
-7.21392e-05
-0.000100637
-0.000129469
-0.00015679
-0.000180438
-0.000198246
-0.000208467
-0.000210212
-0.000203724
-0.000190342
-0.000172144
-0.00015141
-0.000130133
-0.000109764
-9.11842e-05
-7.48244e-05
-6.08032e-05
-4.90417e-05
-3.93436e-05
-3.14525e-05
-2.50947e-05
-2.00091e-05
-1.59642e-05
-1.27635e-05
-1.02432e-05
-8.26561e-06
-6.71456e-06
-5.49397e-06
-4.52858e-06
-3.76321e-06
-3.15897e-06
-2.68717e-06
-2.32329e-06
-2.04341e-06
-1.82383e-06
-1.64299e-06
-1.48388e-06
-1.3355e-06
-1.19272e-06
-1.05477e-06
-9.23225e-07
-8.00238e-07
-6.87439e-07
-5.85602e-07
-4.94838e-07
-4.14908e-07
-3.45511e-07
-2.8629e-07
-2.36751e-07
-1.96038e-07
-1.62881e-07
-1.35583e-07
-1.12219e-07
-9.08335e-08
-6.96903e-08
-4.75347e-08
-2.47965e-08
9.22052e-05
9.21343e-05
9.1953e-05
9.16583e-05
9.12404e-05
9.06755e-05
8.99294e-05
8.89578e-05
8.77042e-05
8.60958e-05
8.40395e-05
8.14187e-05
7.80885e-05
7.38718e-05
6.85555e-05
6.1889e-05
5.35859e-05
4.33328e-05
3.08074e-05
1.57096e-05
-2.18997e-06
-2.29823e-05
-4.65347e-05
-7.23963e-05
-9.97122e-05
-0.000127178
-0.000153073
-0.000175416
-0.00019224
-0.000201982
-0.00020385
-0.000198061
-0.00018581
-0.000168955
-0.000149558
-0.000129454
-0.000110016
-9.21119e-05
-7.61963e-05
-6.24269e-05
-5.07674e-05
-4.1062e-05
-3.30898e-05
-2.66064e-05
-2.13724e-05
-1.71714e-05
-1.38167e-05
-1.11503e-05
-9.03851e-06
-7.36744e-06
-6.04227e-06
-4.98749e-06
-4.14634e-06
-3.47767e-06
-2.95057e-06
-2.539e-06
-2.21829e-06
-1.96452e-06
-1.75592e-06
-1.57501e-06
-1.40992e-06
-1.25437e-06
-1.10642e-06
-9.66694e-07
-8.36684e-07
-7.17691e-07
-6.10377e-07
-5.14839e-07
-4.30825e-07
-3.5798e-07
-2.95856e-07
-2.43856e-07
-2.01054e-07
-1.66153e-07
-1.37484e-07
-1.13167e-07
-9.12831e-08
-7.00821e-08
-4.81875e-08
-2.56933e-08
9.19179e-05
9.18377e-05
9.16328e-05
9.13006e-05
9.08314e-05
9.02e-05
8.93705e-05
8.82971e-05
8.69215e-05
8.51694e-05
8.29473e-05
8.01384e-05
7.66001e-05
7.21597e-05
6.66123e-05
5.972e-05
5.12156e-05
4.08116e-05
2.82196e-05
1.31808e-05
-4.48827e-06
-2.48328e-05
-4.76834e-05
-7.2574e-05
-9.86707e-05
-0.000124741
-0.000149193
-0.000170223
-0.000186066
-0.000195331
-0.000197322
-0.00019223
-0.000181107
-0.000165601
-0.000147559
-0.000128659
-0.000110189
-9.29984e-05
-7.75604e-05
-6.40697e-05
-5.2532e-05
-4.28322e-05
-3.47861e-05
-2.81794e-05
-2.27959e-05
-1.84354e-05
-1.49218e-05
-1.21039e-05
-9.8521e-06
-8.05534e-06
-6.62013e-06
-5.47086e-06
-4.54937e-06
-3.81232e-06
-3.22661e-06
-2.76458e-06
-2.40069e-06
-2.11067e-06
-1.87252e-06
-1.66826e-06
-1.48516e-06
-1.31583e-06
-1.15716e-06