/*--------------------------------*- C++ -*----------------------------------*\
| =========                 |                                                 |
| \\      /  F ield         | OpenFOAM: The Open Source CFD Toolbox           |
|  \\    /   O peration     | Version:  2512                                  |
|   \\  /    A nd           | Website:  www.openfoam.com                      |
|    \\/     M anipulation  |                                                 |
\*---------------------------------------------------------------------------*/
FoamFile
{
    version     2.0;
    format      ascii;
    arch        "LSB;label=32;scalar=64";
    class       volScalarField;
    location    "127";
    object      p;
}
// * * * * * * * * * * * * * * * * * * * * * * * * * * * * * * * * * * * * * //

dimensions      [0 2 -2 0 0 0 0];

internalField   nonuniform List<scalar> 
240106
(
6.32945e-05
6.31991e-05
6.29555e-05
6.25646e-05
6.20204e-05
6.13006e-05
6.03746e-05
5.92053e-05
5.77486e-05
5.59522e-05
5.37555e-05
5.10896e-05
4.78785e-05
4.40405e-05
3.94913e-05
3.41485e-05
2.7938e-05
2.08026e-05
1.27124e-05
3.6779e-06
-6.23709e-06
-1.69019e-05
-2.81088e-05
-3.95681e-05
-5.09123e-05
-6.17116e-05
-7.15031e-05
-7.98319e-05
-8.62996e-05
-9.06142e-05
-9.26287e-05
-9.23621e-05
-8.9994e-05
-8.58361e-05
-8.02848e-05
-7.37697e-05
-6.67053e-05
-5.94567e-05
-5.23207e-05
-4.55196e-05
-3.92049e-05
-3.34668e-05
-2.83457e-05
-2.38441e-05
-1.99379e-05
-1.65856e-05
-1.37358e-05
-1.13329e-05
-9.32088e-06
-7.64644e-06
-6.26015e-06
-5.11753e-06
-4.17928e-06
-3.41125e-06
-2.78411e-06
-2.27298e-06
-1.85698e-06
-1.51872e-06
-1.24386e-06
-1.02056e-06
-8.39125e-07
-6.91616e-07
-5.71544e-07
-4.73643e-07
-3.93667e-07
-3.28212e-07
-2.74552e-07
-2.30488e-07
-1.94224e-07
-1.64268e-07
-1.39365e-07
-1.18452e-07
-1.00635e-07
-8.51577e-08
-7.13932e-08
-5.88146e-08
-4.69745e-08
-3.54664e-08
-2.37753e-08
-1.26231e-08
6.33217e-05
6.32271e-05
6.29859e-05
6.25988e-05
6.20595e-05
6.13463e-05
6.04283e-05
5.92688e-05
5.78236e-05
5.60406e-05
5.3859e-05
5.12098e-05
4.80165e-05
4.41968e-05
3.96652e-05
3.43381e-05
2.81393e-05
2.10093e-05
1.29154e-05
3.86518e-06
-6.08037e-06
-1.67927e-05
-2.80649e-05
-3.96062e-05
-5.10453e-05
-6.19459e-05
-7.18362e-05
-8.02504e-05
-8.67801e-05
-9.11249e-05
-9.31339e-05
-9.28275e-05
-9.03917e-05
-8.61478e-05
-8.05035e-05
-7.38982e-05
-6.67537e-05
-5.94395e-05
-5.22538e-05
-4.54182e-05
-3.90825e-05
-3.33344e-05
-2.82117e-05
-2.37147e-05
-1.9817e-05
-1.64755e-05
-1.36377e-05
-1.12468e-05
-9.24651e-06
-7.58289e-06
-6.20637e-06
-5.07239e-06
-4.14169e-06
-3.38013e-06
-2.7585e-06
-2.252e-06
-1.83987e-06
-1.50483e-06
-1.23261e-06
-1.01149e-06
-8.31845e-07
-6.85793e-07
-5.669e-07
-4.69947e-07
-3.90729e-07
-3.25879e-07
-2.72702e-07
-2.29026e-07
-1.93075e-07
-1.63371e-07
-1.38667e-07
-1.17907e-07
-1.00202e-07
-8.48019e-08
-7.10867e-08
-5.85378e-08
-4.67168e-08
-3.52282e-08
-2.35804e-08
-1.24675e-08
6.33753e-05
6.32824e-05
6.30458e-05
6.2666e-05
6.21368e-05
6.14364e-05
6.05344e-05
5.93942e-05
5.79718e-05
5.62153e-05
5.40636e-05
5.14474e-05
4.82894e-05
4.45059e-05
4.00096e-05
3.47137e-05
2.85385e-05
2.14196e-05
1.3319e-05
4.23818e-06
-5.76738e-06
-1.65735e-05
-2.7975e-05
-3.9679e-05
-5.13068e-05
-6.24094e-05
-7.24968e-05
-8.10821e-05
-8.77359e-05
-9.21413e-05
-9.41397e-05
-9.37537e-05
-9.11824e-05
-8.67668e-05
-8.09369e-05
-7.41519e-05
-6.68484e-05
-5.9404e-05
-5.21198e-05
-4.52161e-05
-3.8839e-05
-3.30714e-05
-2.79459e-05
-2.3458e-05
-1.95773e-05
-1.62575e-05
-1.34433e-05
-1.10765e-05
-9.09926e-06
-7.45707e-06
-6.09991e-06
-4.98307e-06
-4.06728e-06
-3.31855e-06
-2.70782e-06
-2.21049e-06
-1.80602e-06
-1.47732e-06
-1.21035e-06
-9.93547e-07
-8.1744e-07
-6.74273e-07
-5.57719e-07
-4.62646e-07
-3.84931e-07
-3.21282e-07
-2.69068e-07
-2.2617e-07
-1.90849e-07
-1.61654e-07
-1.37355e-07
-1.16907e-07
-9.94323e-08
-8.4193e-08
-7.05829e-08
-5.81e-08
-4.6324e-08
-3.48807e-08
-2.33079e-08
-1.23236e-08
6.34539e-05
6.33638e-05
6.3134e-05
6.27649e-05
6.22504e-05
6.15689e-05
6.06904e-05
5.95787e-05
5.81901e-05
5.64725e-05
5.43651e-05
5.17977e-05
4.86921e-05
4.49625e-05
4.05187e-05
3.52697e-05
2.91302e-05
2.20288e-05
1.39194e-05
4.79442e-06
-5.29892e-06
-1.62432e-05
-2.78361e-05
-3.97818e-05
-5.16911e-05
-6.30956e-05
-7.34783e-05
-8.23204e-05
-8.91606e-05
-9.36572e-05
-9.56391e-05
-9.51331e-05
-9.23576e-05
-8.7684e-05
-8.15761e-05
-7.45229e-05
-6.69828e-05
-5.93455e-05
-5.1916e-05
-4.49125e-05
-3.84752e-05
-3.26797e-05
-2.7551e-05
-2.30774e-05
-1.92225e-05
-1.59351e-05
-1.31563e-05
-1.08251e-05
-8.88217e-06
-7.27169e-06
-5.94315e-06
-4.85161e-06
-3.95784e-06
-3.22801e-06
-2.63332e-06
-2.14949e-06
-1.75626e-06
-1.4369e-06
-1.17762e-06
-9.67155e-07
-7.96241e-07
-6.57307e-07
-5.4418e-07
-4.51861e-07
-3.76351e-07
-3.14464e-07
-2.63667e-07
-2.21914e-07
-1.87525e-07
-1.59083e-07
-1.35382e-07
-1.15396e-07
-9.82589e-08
-8.32539e-08
-6.97961e-08
-5.7409e-08
-4.5699e-08
-3.43232e-08
-2.28606e-08
-1.20821e-08
6.35557e-05
6.34691e-05
6.32481e-05
6.2893e-05
6.23975e-05
6.17406e-05
6.08927e-05
5.9818e-05
5.84733e-05
5.68066e-05
5.47569e-05
5.22534e-05
4.92164e-05
4.55577e-05
4.11832e-05
3.59965e-05
2.99051e-05
2.28283e-05
1.47093e-05
5.52884e-06
-4.67737e-06
-1.5801e-05
-2.7644e-05
-3.99073e-05
-5.2188e-05
-6.39925e-05
-7.47678e-05
-8.3952e-05
-9.10411e-05
-9.56591e-05
-9.76185e-05
-9.69512e-05
-9.39024e-05
-8.88848e-05
-8.24075e-05
-7.49997e-05
-6.71483e-05
-5.92588e-05
-5.16404e-05
-4.45081e-05
-3.79941e-05
-3.21641e-05
-2.70328e-05
-2.25792e-05
-1.87589e-05
-1.55145e-05
-1.27823e-05
-1.04981e-05
-8.59993e-06
-7.03089e-06
-5.73966e-06
-4.68107e-06
-3.81594e-06
-3.11068e-06
-2.53683e-06
-2.0705e-06
-1.69187e-06
-1.38459e-06
-1.1353e-06
-9.3304e-07
-7.68858e-07
-6.35412e-07
-5.26726e-07
-4.37977e-07
-3.65324e-07
-3.05726e-07
-2.56772e-07
-2.16515e-07
-1.83344e-07
-1.55887e-07
-1.3297e-07
-1.13585e-07
-9.68885e-08
-8.21885e-08
-6.89306e-08
-5.66722e-08
-4.50556e-08
-3.37766e-08
-2.24597e-08
-1.19252e-08
6.36781e-05
6.35957e-05
6.33853e-05
6.30471e-05
6.25746e-05
6.19474e-05
6.11365e-05
6.01066e-05
5.8815e-05
5.72101e-05
5.52305e-05
5.28048e-05
4.98516e-05
4.62797e-05
4.19907e-05
3.68815e-05
3.08507e-05
2.38067e-05
1.56792e-05
6.43446e-06
-3.9062e-06
-1.52462e-05
-2.73937e-05
-4.00461e-05
-5.27845e-05
-6.50843e-05
-7.63477e-05
-8.59589e-05
-9.33591e-05
-9.8129e-05
-0.000100059
-9.9189e-05
-9.57975e-05
-9.03501e-05
-8.34136e-05
-7.55677e-05
-6.73343e-05
-5.91374e-05
-5.12907e-05
-4.40041e-05
-3.73997e-05
-3.15305e-05
-2.63984e-05
-2.19711e-05
-1.81945e-05
-1.50035e-05
-1.23287e-05
-1.01019e-05
-8.25844e-06
-6.73982e-06
-5.4939e-06
-4.47525e-06
-3.64478e-06
-2.96923e-06
-2.42054e-06
-1.97533e-06
-1.61427e-06
-1.32156e-06
-1.08428e-06
-8.91905e-07
-7.3582e-07
-6.08969e-07
-5.05614e-07
-4.21144e-07
-3.51913e-07
-2.95055e-07
-2.48308e-07
-2.09844e-07
-1.78132e-07
-1.51856e-07
-1.29873e-07
-1.11202e-07
-9.50246e-08
-8.06808e-08
-6.76543e-08
-5.55447e-08
-4.40386e-08
-3.28777e-08
-2.17427e-08
-1.1529e-08
6.3818e-05
6.37404e-05
6.35422e-05
6.32234e-05
6.27774e-05
6.21843e-05
6.14159e-05
6.04376e-05
5.92073e-05
5.76737e-05
5.57753e-05
5.34399e-05
5.05843e-05
4.71141e-05
4.29255e-05
3.79083e-05
3.19509e-05
2.49486e-05
1.68156e-05
7.50093e-06
-2.99161e-06
-1.458e-05
-2.70805e-05
-4.01877e-05
-5.34647e-05
-6.63509e-05
-7.8195e-05
-8.83162e-05
-9.6089e-05
-0.000101041
-0.000102935
-0.00010182
-9.80161e-05
-9.20546e-05
-8.45723e-05
-7.62093e-05
-6.75285e-05
-5.89746e-05
-5.08652e-05
-4.34033e-05
-3.6698e-05
-3.07872e-05
-2.56578e-05
-2.12637e-05
-1.75398e-05
-1.44121e-05
-1.18048e-05
-9.64503e-06
-7.86527e-06
-6.40511e-06
-5.2116e-06
-4.23906e-06
-3.44855e-06
-2.80719e-06
-2.28743e-06
-1.86647e-06
-1.52559e-06
-1.24958e-06
-1.02607e-06
-8.45032e-07
-6.98232e-07
-5.78942e-07
-4.81695e-07
-4.02125e-07
-3.36811e-07
-2.83091e-07
-2.38878e-07
-2.02476e-07
-1.7245e-07
-1.47541e-07
-1.26644e-07
-1.08806e-07
-9.32396e-08
-7.93215e-08
-6.65808e-08
-5.46664e-08
-4.33152e-08
-3.23183e-08
-2.14032e-08
-1.14907e-08
6.3972e-05
6.38997e-05
6.3715e-05
6.34175e-05
6.30008e-05
6.24455e-05
6.17242e-05
6.08032e-05
5.9641e-05
5.81867e-05
5.63789e-05
5.41446e-05
5.13986e-05
4.80431e-05
4.39688e-05
3.90573e-05
3.31857e-05
2.62349e-05
1.81014e-05
8.71424e-06
-1.94285e-06
-1.38055e-05
-2.67006e-05
-4.03208e-05
-5.421e-05
-6.77674e-05
-8.02802e-05
-9.09913e-05
-9.91966e-05
-0.000104359
-0.000106211
-0.000104808
-0.000100525
-9.39675e-05
-8.58574e-05
-7.69044e-05
-6.77179e-05
-5.87643e-05
-5.0364e-05
-4.27106e-05
-3.58978e-05
-2.99455e-05
-2.48233e-05
-2.04699e-05
-1.68075e-05
-1.37524e-05
-1.12217e-05
-9.13748e-06
-7.42912e-06
-6.03431e-06
-4.8992e-06
-3.97792e-06
-3.23176e-06
-2.62828e-06
-2.14054e-06
-1.74637e-06
-1.42775e-06
-1.17013e-06
-9.61805e-07
-7.93242e-07
-6.5666e-07
-5.45677e-07
-4.55128e-07
-3.80918e-07
-3.19876e-07
-2.69573e-07
-2.28114e-07
-1.93954e-07
-1.65758e-07
-1.4233e-07
-1.22605e-07
-1.05659e-07
-9.07386e-08
-7.72628e-08
-6.48108e-08
-5.30867e-08
-4.18826e-08
-3.10448e-08
-2.0365e-08
-1.0858e-08
6.4136e-05
6.40694e-05
6.38992e-05
6.36247e-05
6.32393e-05
6.27245e-05
6.20538e-05
6.11945e-05
6.01056e-05
5.87371e-05
5.70274e-05
5.49029e-05
5.22764e-05
4.90466e-05
4.50985e-05
4.03049e-05
3.45309e-05
2.76416e-05
1.95143e-05
1.00557e-05
-7.73465e-07
-1.29294e-05
-2.62521e-05
-4.04343e-05
-5.50001e-05
-6.93046e-05
-8.25669e-05
-9.39427e-05
-0.000102637
-0.000108038
-0.000109839
-0.00010811
-0.000103281
-9.60519e-05
-8.72389e-05
-7.76313e-05
-6.78894e-05
-5.85017e-05
-4.97894e-05
-4.19341e-05
-3.50109e-05
-2.90196e-05
-2.39104e-05
-1.96052e-05
-1.60126e-05
-1.30384e-05
-1.05921e-05
-8.59069e-06
-6.9601e-06
-5.63618e-06
-4.56424e-06
-3.69828e-06
-2.99989e-06
-2.43716e-06
-1.98379e-06
-1.61835e-06
-1.32358e-06
-1.08567e-06
-8.93587e-07
-7.3839e-07
-6.12752e-07
-5.10666e-07
-4.27286e-07
-3.58808e-07
-3.02338e-07
-2.55697e-07
-2.17204e-07
-1.8547e-07
-1.59268e-07
-1.37468e-07
-1.19042e-07
-1.03099e-07
-8.8922e-08
-7.59746e-08
-6.38902e-08
-5.24305e-08
-4.14444e-08
-3.08286e-08
-2.04082e-08
-1.1169e-08
6.4306e-05
6.42454e-05
6.40902e-05
6.38396e-05
6.3487e-05
6.30145e-05
6.23968e-05
6.16019e-05
6.05901e-05
5.93116e-05
5.77053e-05
5.56968e-05
5.31973e-05
5.01018e-05
4.62893e-05
4.16239e-05
3.59582e-05
2.91405e-05
2.10273e-05
1.15014e-05
4.98002e-07
-1.19626e-05
-2.57364e-05
-4.05182e-05
-5.58127e-05
-7.0929e-05
-8.50112e-05
-9.71187e-05
-0.000106354
-0.000112019
-0.000113763
-0.000111668
-0.000106235
-9.82646e-05
-8.86833e-05
-7.83676e-05
-6.80315e-05
-5.81849e-05
-4.91473e-05
-4.10852e-05
-3.40527e-05
-2.8027e-05
-2.29375e-05
-1.86879e-05
-1.51724e-05
-1.22861e-05
-9.93049e-06
-8.01727e-06
-6.46912e-06
-5.22002e-06
-4.21454e-06
-3.40664e-06
-2.75827e-06
-2.23813e-06
-1.82062e-06
-1.48509e-06
-1.21509e-06
-9.97647e-07
-8.2242e-07
-6.81074e-07
-5.66763e-07
-4.73863e-07
-3.97858e-07
-3.35253e-07
-2.83447e-07
-2.40531e-07
-2.05045e-07
-1.75768e-07
-1.51579e-07
-1.3141e-07
-1.14272e-07
-9.93073e-08
-8.58366e-08
-7.33728e-08
-6.16069e-08
-5.03611e-08
-3.95429e-08
-2.91052e-08
-1.89437e-08
-1.01714e-08
6.44776e-05
6.4423e-05
6.42831e-05
6.40568e-05
6.37375e-05
6.33082e-05
6.27444e-05
6.20153e-05
6.10822e-05
5.98961e-05
5.8396e-05
5.65072e-05
5.41392e-05
5.11835e-05
4.75134e-05
4.2984e-05
3.74352e-05
3.06983e-05
2.2608e-05
1.30218e-05
1.84717e-06
-1.09214e-05
-2.51589e-05
-4.05647e-05
-5.66256e-05
-7.26029e-05
-8.75617e-05
-0.000100456
-0.000110276
-0.000116226
-0.000117907
-0.000115414
-0.000109325
-0.000100557
-9.01549e-05
-7.90912e-05
-6.81348e-05
-5.78154e-05
-4.84476e-05
-4.01798e-05
-3.30427e-05
-2.69891e-05
-2.19262e-05
-1.77389e-05
-1.43066e-05
-1.15132e-05
-9.25269e-06
-7.43125e-06
-5.96838e-06
-4.79635e-06
-3.85911e-06
-3.11068e-06
-2.51346e-06
-2.03678e-06
-1.65581e-06
-1.35072e-06
-1.10593e-06
-9.09278e-07
-7.51194e-07
-6.23948e-07
-5.21173e-07
-4.37629e-07
-3.69134e-07
-3.12514e-07
-2.65476e-07
-2.26391e-07
-1.94028e-07
-1.67329e-07
-1.45274e-07
-1.26854e-07
-1.11113e-07
-9.72253e-08
-8.45522e-08
-7.26599e-08
-6.12996e-08
-5.03549e-08
-3.97893e-08
-2.95986e-08
-1.96855e-08
-1.10575e-08
6.46464e-05
6.45978e-05
6.44731e-05
6.42708e-05
6.39846e-05
6.3598e-05
6.30878e-05
6.24244e-05
6.15698e-05
6.04759e-05
5.90823e-05
5.73139e-05
5.50786e-05
5.22649e-05
4.87405e-05
4.43518e-05
3.89261e-05
3.22775e-05
2.42188e-05
1.45813e-05
3.24345e-06
-9.82825e-06
-2.45304e-05
-4.05697e-05
-5.74168e-05
-7.42858e-05
-9.01597e-05
-0.000103882
-0.000114319
-0.000120572
-0.000122185
-0.000119268
-0.000112483
-0.000102874
-9.16166e-05
-7.97816e-05
-6.81936e-05
-5.73993e-05
-4.77051e-05
-3.92384e-05
-3.20044e-05
-2.59306e-05
-2.09009e-05
-1.67813e-05
-1.34363e-05
-1.07389e-05
-8.57534e-06
-6.84691e-06
-5.46999e-06
-4.37531e-06
-3.50631e-06
-2.81718e-06
-2.27085e-06
-1.83732e-06
-1.49254e-06
-1.21753e-06
-9.97589e-07
-8.21419e-07
-6.80193e-07
-5.66789e-07
-4.75307e-07
-4.00881e-07
-3.39663e-07
-2.88805e-07
-2.46332e-07
-2.10901e-07
-1.81511e-07
-1.5726e-07
-1.37221e-07
-1.2043e-07
-1.05961e-07
-9.30168e-08
-8.10056e-08
-6.95511e-08
-5.84704e-08
-4.7712e-08
-3.72974e-08
-2.72756e-08
-1.76266e-08
-9.53758e-09
6.4808e-05
6.47651e-05
6.4655e-05
6.44761e-05
6.42218e-05
6.38766e-05
6.34184e-05
6.28185e-05
6.20402e-05
6.10362e-05
5.97465e-05
5.80961e-05
5.59913e-05
5.33181e-05
4.99388e-05
4.56916e-05
4.03917e-05
3.38366e-05
2.58174e-05
1.61388e-05
4.64999e-06
-8.71203e-06
-2.38676e-05
-4.05331e-05
-5.8166e-05
-7.59347e-05
-9.27399e-05
-0.00010731
-0.000118384
-0.00012495
-0.000126491
-0.000123134
-0.000115629
-0.000105158
-9.3031e-05
-8.0421e-05
-6.82067e-05
-5.6948e-05
-4.69396e-05
-3.8286e-05
-3.09656e-05
-2.48795e-05
-1.98888e-05
-1.58404e-05
-1.25844e-05
-9.98345e-06
-7.91644e-06
-6.27991e-06
-4.98745e-06
-3.96847e-06
-3.16606e-06
-2.53469e-06
-2.03782e-06
-1.64618e-06
-1.33647e-06
-1.09057e-06
-8.94665e-07
-7.38318e-07
-6.13436e-07
-5.13477e-07
-4.32978e-07
-3.67425e-07
-3.13293e-07
-2.6806e-07
-2.30072e-07
-1.98274e-07
-1.71884e-07
-1.50145e-07
-1.32204e-07
-1.17129e-07
-1.04011e-07
-9.20821e-08
-8.07963e-08
-6.98411e-08
-5.91043e-08
-4.86014e-08
-3.84087e-08
-2.8608e-08
-1.91555e-08
-1.10566e-08
6.49582e-05
6.49207e-05
6.48244e-05
6.46673e-05
6.4443e-05
6.41367e-05
6.37274e-05
6.31874e-05
6.24811e-05
6.15622e-05
6.03712e-05
5.88329e-05
5.6853e-05
5.43146e-05
5.10756e-05
4.69664e-05
4.17912e-05
3.53314e-05
2.73575e-05
1.76485e-05
6.02434e-06
-7.60772e-06
-2.31929e-05
-4.04599e-05
-5.88558e-05
-7.75065e-05
-9.52321e-05
-0.000110647
-0.000122358
-0.000129238
-0.000130707
-0.000126906
-0.00011868
-0.000107348
-9.43622e-05
-8.09957e-05
-6.81779e-05
-5.6478e-05
-4.61761e-05
-3.7352e-05
-2.99569e-05
-2.38663e-05
-1.89185e-05
-1.49423e-05
-1.17742e-05
-9.26711e-06
-7.2932e-06
-5.74468e-06
-4.53271e-06
-3.58554e-06
-2.84612e-06
-2.26923e-06
-1.81892e-06
-1.46658e-06
-1.18968e-06
-9.70928e-07
-7.97386e-07
-6.5944e-07
-5.49706e-07
-4.6218e-07
-3.91796e-07
-3.34357e-07
-2.86647e-07
-2.46461e-07
-2.12466e-07
-1.83887e-07
-1.60155e-07
-1.40639e-07
-1.24541e-07
-1.10944e-07
-9.89475e-08
-8.78083e-08
-7.70292e-08
-6.63674e-08
-5.5788e-08
-4.53784e-08
-3.52744e-08
-2.56086e-08
-1.64234e-08
-8.9612e-09
6.50929e-05
6.50603e-05
6.49765e-05
6.48393e-05
6.46423e-05
6.43715e-05
6.40067e-05
6.35214e-05
6.28809e-05
6.20398e-05
6.09394e-05
5.95044e-05
5.76398e-05
5.52265e-05
5.21184e-05
4.81393e-05
4.30828e-05
3.67163e-05
2.87908e-05
1.90612e-05
7.3197e-06
-6.55551e-06
-2.25348e-05
-4.03606e-05
-5.94727e-05
-7.89588e-05
-9.75634e-05
-0.000113791
-0.000126118
-0.000133305
-0.000134703
-0.00013047
-0.000121544
-0.000109383
-9.5577e-05
-8.14965e-05
-6.81164e-05
-5.60109e-05
-4.54436e-05
-3.64691e-05
-2.90121e-05
-2.29234e-05
-1.80201e-05
-1.41143e-05
-1.10299e-05
-8.61108e-06
-6.724e-06
-5.2571e-06
-4.11941e-06
-3.23831e-06
-2.5567e-06
-2.02973e-06
-1.62203e-06
-1.30561e-06
-1.05866e-06
-8.64653e-07
-7.11496e-07
-5.90357e-07
-4.94502e-07
-4.18408e-07
-3.57347e-07
-3.07403e-07
-2.65632e-07
-2.3013e-07
-1.99873e-07
-1.74352e-07
-1.53192e-07
-1.35869e-07
-1.21619e-07
-1.09521e-07
-9.86723e-08
-8.83466e-08
-7.80966e-08
-6.77522e-08
-5.73599e-08
-4.7081e-08
-3.71064e-08
-2.75942e-08
-1.85389e-08
-1.09466e-08
6.52086e-05
6.51804e-05
6.51074e-05
6.49876e-05
6.48144e-05
6.45746e-05
6.42488e-05
6.38114e-05
6.32287e-05
6.2456e-05
6.14354e-05
6.00916e-05
5.83292e-05
5.60273e-05
5.30363e-05
4.91742e-05
4.4226e-05
3.79462e-05
3.00686e-05
2.03267e-05
8.48707e-06
-5.59891e-06
-2.19257e-05
-4.025e-05
-6.00072e-05
-8.02522e-05
-9.96614e-05
-0.000116637
-0.000129537
-0.000137008
-0.000138341
-0.000133706
-0.000124129
-0.000111203
-9.66462e-05
-8.19193e-05
-6.8036e-05
-5.55723e-05
-4.4774e-05
-3.56715e-05
-2.81651e-05
-2.20828e-05
-1.72227e-05
-1.33819e-05
-1.03736e-05
-8.03402e-06
-6.22437e-06
-4.82983e-06
-3.75768e-06
-2.93467e-06
-2.30373e-06
-1.82042e-06
-1.44989e-06
-1.16471e-06
-9.43687e-07
-7.71019e-07
-6.35371e-07
-5.2863e-07
-4.44645e-07
-3.783e-07
-3.25152e-07
-2.81508e-07
-2.44665e-07
-2.12993e-07
-1.85751e-07
-1.62681e-07
-1.43581e-07
-1.28013e-07
-1.15231e-07
-1.04299e-07
-9.42975e-08
-8.45152e-08
-7.45522e-08
-6.43124e-08
-5.39248e-08
-4.36262e-08
-3.36666e-08
-2.42514e-08
-1.54634e-08
-8.56557e-09
6.53022e-05
6.52775e-05
6.52136e-05
6.51081e-05
6.49547e-05
6.47405e-05
6.4447e-05
6.40495e-05
6.35148e-05
6.27992e-05
6.18451e-05
6.05777e-05
5.89009e-05
5.66927e-05
5.38007e-05
5.00382e-05
4.51828e-05
3.89784e-05
3.11446e-05
2.13962e-05
9.47801e-06
-4.78211e-06
-2.14001e-05
-4.01465e-05
-6.04544e-05
-8.13519e-05
-0.000101458
-0.000119085
-0.000132486
-0.000140207
-0.000141484
-0.000136495
-0.000126347
-0.000112752
-9.75457e-05
-8.22644e-05
-6.79542e-05
-5.51899e-05
-4.42002e-05
-3.4994e-05
-2.74497e-05
-2.13761e-05
-1.65548e-05
-1.27705e-05
-9.82727e-06
-7.55502e-06
-5.81075e-06
-4.47705e-06
-3.45983e-06
-2.68537e-06
-2.09673e-06
-1.64984e-06
-1.31028e-06
-1.05111e-06
-8.51644e-07
-6.96697e-07
-5.75598e-07
-4.80855e-07
-4.06806e-07
-3.4867e-07
-3.02212e-07
-2.6391e-07
-2.31253e-07
-2.02843e-07
-1.78187e-07
-1.57247e-07
-1.3997e-07
-1.25984e-07
-1.14547e-07
-1.04694e-07
-9.54835e-08
-8.62124e-08
-7.65235e-08
-6.639e-08
-5.60199e-08
-4.57211e-08
-3.57934e-08
-2.64609e-08
-1.77478e-08
-1.06634e-08
6.5371e-05
6.5349e-05
6.5292e-05
6.51974e-05
6.50591e-05
6.48646e-05
6.4596e-05
6.4229e-05
6.37312e-05
6.30594e-05
6.21566e-05
6.09481e-05
5.93377e-05
5.72022e-05
5.43872e-05
5.07025e-05
4.592e-05
3.97754e-05
3.19771e-05
2.22255e-05
1.02479e-05
-4.14664e-06
-2.09918e-05
-4.00697e-05
-6.08127e-05
-8.22288e-05
-0.000102891
-0.000121042
-0.000134846
-0.00014277
-0.000144001
-0.000138725
-0.000128116
-0.000113984
-9.82568e-05
-8.25355e-05
-6.78894e-05
-5.48907e-05
-4.37532e-05
-3.44678e-05
-2.68958e-05
-2.08303e-05
-1.60403e-05
-1.23006e-05
-9.40822e-06
-7.1883e-06
-5.49462e-06
-4.2078e-06
-3.23274e-06
-2.49544e-06
-1.93907e-06
-1.5199e-06
-1.20386e-06
-9.64342e-07
-7.81075e-07
-6.39359e-07
-5.29058e-07
-4.43184e-07
-3.76462e-07
-3.24356e-07
-2.8278e-07
-2.48325e-07
-2.1862e-07
-1.92452e-07
-1.69532e-07
-1.50001e-07
-1.33928e-07
-1.20991e-07
-1.10442e-07
-1.01282e-07
-9.25449e-08
-8.35283e-08
-7.39102e-08
-6.37241e-08
-5.32475e-08
-4.28519e-08
-3.28855e-08
-2.36096e-08
-1.51205e-08
-8.63222e-09
6.54131e-05
6.53929e-05
6.53404e-05
6.52532e-05
6.51249e-05
6.49435e-05
6.46913e-05
6.43447e-05
6.38715e-05
6.32291e-05
6.23607e-05
6.11917e-05
5.96258e-05
5.75393e-05
5.47762e-05
5.1144e-05
4.64108e-05
4.03067e-05
3.25324e-05
2.27783e-05
1.07597e-05
-3.72771e-06
-2.07299e-05
-4.00374e-05
-6.1083e-05
-8.28606e-05
-0.000103912
-0.000122431
-0.000136519
-0.000144585
-0.000145783
-0.000140304
-0.000129368
-0.000114857
-9.87661e-05
-8.27382e-05
-6.78593e-05
-5.46989e-05
-4.34597e-05
-3.41201e-05
-2.6529e-05
-2.04689e-05
-1.57e-05
-1.19903e-05
-9.13218e-06
-6.94743e-06
-5.28768e-06
-4.03224e-06
-3.08535e-06
-2.37283e-06
-1.83798e-06
-1.43727e-06
-1.13688e-06
-9.10427e-07
-7.37893e-07
-6.04917e-07
-5.01741e-07
-4.21731e-07
-3.59881e-07
-3.11812e-07
-2.73518e-07
-2.41649e-07
-2.13921e-07
-1.89243e-07
-1.67475e-07
-1.4889e-07
-1.33646e-07
-1.21452e-07
-1.11545e-07
-1.02894e-07
-9.45039e-08
-8.56666e-08
-7.60837e-08
-6.58349e-08
-5.52526e-08
-4.4759e-08
-3.47378e-08
-2.5461e-08
-1.69763e-08
-1.0297e-08
6.5427e-05
6.54077e-05
6.53573e-05
6.52734e-05
6.51499e-05
6.49746e-05
6.47302e-05
6.43931e-05
6.39316e-05
6.33031e-05
6.24509e-05
6.13008e-05
5.9756e-05
5.76927e-05
5.49543e-05
5.13468e-05
4.66366e-05
4.05509e-05
3.27865e-05
2.30286e-05
1.09866e-05
-3.55075e-06
-2.06357e-05
-4.00634e-05
-6.12664e-05
-8.32318e-05
-0.000104485
-0.000123194
-0.000137429
-0.000145569
-0.000146748
-0.000141162
-0.000130055
-0.000115346
-9.90644e-05
-8.2877e-05
-6.7877e-05
-5.4632e-05
-4.33389e-05
-3.39696e-05
-2.63668e-05
-2.03074e-05
-1.55472e-05
-1.1851e-05
-9.00841e-06
-6.83983e-06
-5.19573e-06
-3.95474e-06
-3.02077e-06
-2.31956e-06
-1.79446e-06
-1.40209e-06
-1.10871e-06
-8.88021e-07
-7.20136e-07
-5.90854e-07
-4.90619e-07
-4.12987e-07
-3.53088e-07
-3.06616e-07
-2.69584e-07
-2.38656e-07
-2.11576e-07
-1.87321e-07
-1.65833e-07
-1.47464e-07
-1.32422e-07
-1.20432e-07
-1.10713e-07
-1.02201e-07
-9.38713e-08
-8.50041e-08
-7.53101e-08
-6.4896e-08
-5.41309e-08
-4.34727e-08
-3.33336e-08
-2.40081e-08
-1.55851e-08
-9.18692e-09
6.54122e-05
6.53927e-05
6.5342e-05
6.52575e-05
6.51331e-05
6.49568e-05
6.47111e-05
6.43726e-05
6.39093e-05
6.32787e-05
6.24242e-05
6.12714e-05
5.97237e-05
5.76569e-05
5.49147e-05
5.1303e-05
4.65881e-05
4.04973e-05
3.27274e-05
2.29636e-05
1.09152e-05
-3.62861e-06
-2.07202e-05
-4.01542e-05
-6.13631e-05
-8.33336e-05
-0.000104591
-0.000123302
-0.000137537
-0.000145676
-0.000146851
-0.000141261
-0.000130148
-0.000115434
-9.91472e-05
-8.29546e-05
-6.79495e-05
-5.46992e-05
-4.34009e-05
-3.40263e-05
-2.64184e-05
-2.03542e-05
-1.55895e-05
-1.1889e-05
-9.04252e-06
-6.87037e-06
-5.22302e-06
-3.97906e-06
-3.04239e-06
-2.33875e-06
-1.81149e-06
-1.41721e-06
-1.12214e-06
-8.99942e-07
-7.30693e-07
-6.00176e-07
-4.9884e-07
-4.20253e-07
-3.59545e-07
-3.1239e-07
-2.74768e-07
-2.43306e-07
-2.15731e-07
-1.91016e-07
-1.6912e-07
-1.50411e-07
-1.35109e-07
-1.22933e-07
-1.13082e-07
-1.04463e-07
-9.60208e-08
-8.70168e-08
-7.71546e-08
-6.65473e-08
-5.55789e-08
-4.47258e-08
-3.44156e-08
-2.49499e-08
-1.64008e-08
-9.83249e-09
6.53688e-05
6.53481e-05
6.52945e-05
6.52055e-05
6.50748e-05
6.48903e-05
6.46344e-05
6.42832e-05
6.38048e-05
6.31563e-05
6.22808e-05
6.11039e-05
5.95289e-05
5.74322e-05
5.46578e-05
5.10129e-05
4.62658e-05
4.01465e-05
3.23557e-05
2.25838e-05
1.05466e-05
-3.96014e-06
-2.09818e-05
-4.03083e-05
-6.13714e-05
-8.31642e-05
-0.000104227
-0.000122753
-0.000136842
-0.000144904
-0.000146092
-0.000140599
-0.000129647
-0.00011512
-9.90129e-05
-8.29697e-05
-6.80755e-05
-5.48995e-05
-4.36446e-05
-3.42894e-05
-2.66832e-05
-2.06087e-05
-1.58262e-05
-1.21039e-05
-9.23411e-06
-7.03868e-06
-5.36918e-06
-4.10482e-06
-3.14981e-06
-2.42995e-06
-1.88853e-06
-1.48201e-06
-1.17647e-06
-9.45383e-07
-7.68648e-07
-6.3185e-07
-5.25249e-07
-4.42245e-07
-3.77832e-07
-3.27575e-07
-2.87371e-07
-2.5377e-07
-2.24428e-07
-1.98252e-07
-1.75144e-07
-1.55432e-07
-1.39303e-07
-1.26453e-07
-1.16057e-07
-1.07e-07
-9.82004e-08
-8.88923e-08
-7.87571e-08
-6.78921e-08
-5.66741e-08
-4.55792e-08
-3.50393e-08
-2.53614e-08
-1.66224e-08
-9.89109e-09
6.52975e-05
6.52748e-05
6.52158e-05
6.51183e-05
6.4976e-05
6.47764e-05
6.45015e-05
6.4127e-05
6.36205e-05
6.29386e-05
6.20241e-05
6.08025e-05
5.9177e-05
5.70247e-05
5.4191e-05
5.04854e-05
4.568e-05
3.95103e-05
3.16849e-05
2.19042e-05
9.89597e-06
-4.53026e-06
-2.14073e-05
-4.05161e-05
-6.12878e-05
-8.27285e-05
-0.000103409
-0.000121572
-0.000135378
-0.000143294
-0.000144509
-0.000139211
-0.000128576
-0.000114417
-9.8664e-05
-8.29175e-05
-6.82462e-05
-5.52217e-05
-4.40584e-05
-3.47475e-05
-2.71507e-05
-2.10615e-05
-1.62492e-05
-1.24886e-05
-9.57701e-06
-7.33947e-06
-5.6297e-06
-4.32818e-06
-3.33974e-06
-2.59033e-06
-2.02315e-06
-1.5944e-06
-1.26987e-06
-1.02275e-06
-8.32605e-07
-6.84647e-07
-5.68763e-07
-4.78011e-07
-4.07117e-07
-3.51456e-07
-3.06786e-07
-2.69539e-07
-2.37245e-07
-2.08684e-07
-1.8363e-07
-1.62308e-07
-1.44832e-07
-1.30856e-07
-1.19534e-07
-1.09733e-07
-1.00349e-07
-9.05858e-08
-8.00877e-08
-6.89159e-08
-5.74175e-08
-4.60495e-08
-3.52349e-08
-2.52816e-08
-1.62844e-08
-9.4105e-09
6.51999e-05
6.51742e-05
6.51076e-05
6.4998e-05
6.4839e-05
6.46177e-05
6.43156e-05
6.39077e-05
6.33609e-05
6.26312e-05
6.1661e-05
6.03753e-05
5.86778e-05
5.64464e-05
5.35285e-05
4.97373e-05
4.48502e-05
3.86113e-05
3.07401e-05
2.09519e-05
8.99183e-06
-5.31148e-06
-2.19729e-05
-4.07612e-05
-6.11079e-05
-8.20385e-05
-0.000102169
-0.000119812
-0.000133215
-0.000140926
-0.000142181
-0.000137162
-0.00012698
-0.000113349
-9.81071e-05
-8.27911e-05
-6.84462e-05
-5.56467e-05
-4.46216e-05
-3.53804e-05
-2.78022e-05
-2.1696e-05
-1.6844e-05
-1.30311e-05
-1.00613e-05
-7.76468e-06
-5.99818e-06
-4.64415e-06
-3.60839e-06
-2.81715e-06
-2.21348e-06
-1.75324e-06
-1.40184e-06
-1.13207e-06
-9.22999e-07
-7.59347e-07
-6.30448e-07
-5.28865e-07
-4.48935e-07
-3.85761e-07
-3.34907e-07
-2.92646e-07
-2.56331e-07
-2.2455e-07
-1.96887e-07
-1.73406e-07
-1.54112e-07
-1.386e-07
-1.26003e-07
-1.15175e-07
-1.05e-07
-9.46454e-08
-8.37099e-08
-7.22001e-08
-6.04133e-08
-4.87685e-08
-3.76646e-08
-2.73931e-08
-1.80142e-08
-1.05888e-08
6.50783e-05
6.50487e-05
6.49724e-05
6.48472e-05
6.4667e-05
6.44181e-05
6.40813e-05
6.36308e-05
6.30327e-05
6.22422e-05
6.12011e-05
5.98341e-05
5.80454e-05
5.57142e-05
5.26904e-05
4.87921e-05
4.38041e-05
3.74809e-05
2.95565e-05
1.97648e-05
7.8729e-06
-6.26679e-06
-2.26473e-05
-4.10235e-05
-6.08284e-05
-8.1114e-05
-0.000100554
-0.000117548
-0.000130451
-0.000137909
-0.000139217
-0.000134545
-0.000124925
-0.000111954
-9.73535e-05
-8.25833e-05
-6.86565e-05
-5.61488e-05
-4.53061e-05
-3.61599e-05
-2.8611e-05
-2.24879e-05
-1.75892e-05
-1.37123e-05
-1.06706e-05
-8.30029e-06
-6.46254e-06
-5.04231e-06
-3.94673e-06
-3.10249e-06
-2.4525e-06
-1.95226e-06
-1.56669e-06
-1.26806e-06
-1.03489e-06
-8.51228e-07
-7.05737e-07
-5.90352e-07
-4.98913e-07
-4.26173e-07
-3.67453e-07
-3.18814e-07
-2.77388e-07
-2.41514e-07
-2.10529e-07
-1.84286e-07
-1.62649e-07
-1.45137e-07
-1.30858e-07
-1.18665e-07
-1.07428e-07
-9.62827e-08
-8.47724e-08
-7.28358e-08
-6.07039e-08
-4.87421e-08
-3.73145e-08
-2.66995e-08
-1.69905e-08
-9.43174e-09
6.49352e-05
6.49011e-05
6.48132e-05
6.46696e-05
6.4464e-05
6.41824e-05
6.38043e-05
6.33032e-05
6.26442e-05
6.17816e-05
6.06566e-05
5.91937e-05
5.72976e-05
5.48492e-05
5.17019e-05
4.76795e-05
4.25756e-05
3.61575e-05
2.81765e-05
1.83881e-05
6.58503e-06
-7.35322e-06
-2.33953e-05
-4.12815e-05
-6.04489e-05
-7.99819e-05
-9.86218e-05
-0.000114869
-0.000127201
-0.000134373
-0.000135742
-0.000131467
-0.000122491
-0.000110278
-9.64207e-05
-8.22889e-05
-6.88573e-05
-5.66997e-05
-4.608e-05
-3.70537e-05
-2.95463e-05
-2.34093e-05
-1.84602e-05
-1.45114e-05
-1.13872e-05
-8.93165e-06
-7.01096e-06
-5.51329e-06
-4.3475e-06
-3.44091e-06
-2.73638e-06
-2.18898e-06
-1.76311e-06
-1.43045e-06
-1.16885e-06
-9.61594e-07
-7.96561e-07
-6.64955e-07
-5.60032e-07
-4.76123e-07
-4.08248e-07
-3.52213e-07
-3.04884e-07
-2.64307e-07
-2.29524e-07
-2.00139e-07
-1.75841e-07
-1.5606e-07
-1.39874e-07
-1.26134e-07
-1.13701e-07
-1.0168e-07
-8.95533e-08
-7.71821e-08
-6.47201e-08
-5.24664e-08
-4.07366e-08
-2.9772e-08
-1.96021e-08
-1.1286e-08
6.47742e-05
6.47349e-05
6.46338e-05
6.44693e-05
6.42351e-05
6.39162e-05
6.34914e-05
6.29331e-05
6.22052e-05
6.12613e-05
6.00419e-05
5.84713e-05
5.6455e-05
5.3876e-05
5.05918e-05
4.6433e-05
4.12033e-05
3.46846e-05
2.66474e-05
1.68715e-05
5.17765e-06
-8.52549e-06
-2.41812e-05
-4.15158e-05
-5.99731e-05
-7.86757e-05
-9.64401e-05
-0.000111877
-0.000123592
-0.000130457
-0.000131893
-0.000128046
-0.000119765
-0.000108376
-9.53315e-05
-8.19067e-05
-6.90301e-05
-5.72708e-05
-4.69093e-05
-3.80263e-05
-3.05738e-05
-2.44281e-05
-1.94278e-05
-1.54024e-05
-1.21886e-05
-9.63922e-06
-7.62655e-06
-6.04254e-06
-4.79811e-06
-3.82146e-06
-3.05548e-06
-2.45487e-06
-1.98344e-06
-1.61223e-06
-1.31834e-06
-1.08424e-06
-8.96948e-07
-7.46857e-07
-6.26565e-07
-5.29919e-07
-4.51587e-07
-3.87082e-07
-3.32965e-07
-2.86956e-07
-2.4777e-07
-2.14733e-07
-1.87335e-07
-1.64898e-07
-1.46464e-07
-1.30875e-07
-1.16988e-07
-1.03872e-07
-9.09501e-08
-7.80026e-08
-6.50988e-08
-5.24651e-08
-4.03641e-08
-2.90106e-08
-1.84636e-08
-9.98014e-09
6.45989e-05
6.45539e-05
6.44385e-05
6.42512e-05
6.39856e-05
6.36261e-05
6.31504e-05
6.25297e-05
6.1727e-05
6.06948e-05
5.9373e-05
5.76862e-05
5.55405e-05
5.28216e-05
4.93917e-05
4.50889e-05
3.97283e-05
3.31077e-05
2.50184e-05
1.52659e-05
3.70045e-06
-9.7394e-06
-2.49718e-05
-4.17105e-05
-5.94097e-05
-7.72342e-05
-9.40808e-05
-0.000108675
-0.000119752
-0.000126302
-0.000127808
-0.000124402
-0.00011684
-0.000106306
-9.41145e-05
-8.144e-05
-6.91607e-05
-5.78363e-05
-4.7762e-05
-3.90431e-05
-3.1659e-05
-2.55118e-05
-2.04628e-05
-1.63595e-05
-1.30524e-05
-1.04041e-05
-8.29363e-06
-6.61722e-06
-5.28828e-06
-4.23609e-06
-3.40372e-06
-2.74551e-06
-2.22473e-06
-1.81169e-06
-1.48274e-06
-1.2195e-06
-1.00804e-06
-8.37911e-07
-7.01004e-07
-5.90625e-07
-5.01042e-07
-4.27436e-07
-3.66042e-07
-3.1423e-07
-2.70369e-07
-2.33486e-07
-2.02852e-07
-1.77665e-07
-1.56913e-07
-1.39427e-07
-1.2405e-07
-1.09823e-07
-9.6104e-08
-8.25948e-08
-6.92783e-08
-5.6304e-08
-4.38735e-08
-3.21528e-08
-2.11282e-08
-1.18643e-08
6.44135e-05
6.43625e-05
6.42319e-05
6.40203e-05
6.37216e-05
6.33191e-05
6.27896e-05
6.2103e-05
6.12214e-05
6.00964e-05
5.86672e-05
5.68586e-05
5.45782e-05
5.17143e-05
4.81344e-05
4.36848e-05
3.81928e-05
3.14729e-05
2.33383e-05
1.36209e-05
2.2006e-06
-1.09544e-05
-2.57385e-05
-4.18554e-05
-5.87723e-05
-7.56998e-05
-9.16169e-05
-0.000105364
-0.000115805
-0.000122041
-0.000123618
-0.00012065
-0.000113804
-0.000104129
-9.28026e-05
-8.0898e-05
-6.92396e-05
-5.83741e-05
-4.86084e-05
-4.0071e-05
-3.2768e-05
-2.66277e-05
-2.15346e-05
-1.7355e-05
-1.3954e-05
-1.12048e-05
-8.99345e-06
-7.22114e-06
-5.80404e-06
-4.67273e-06
-3.77061e-06
-3.05176e-06
-2.47889e-06
-2.02162e-06
-1.65552e-06
-1.36131e-06
-1.12414e-06
-9.32694e-07
-7.78096e-07
-6.53078e-07
-5.51474e-07
-4.68106e-07
-3.98867e-07