/*--------------------------------*- C++ -*----------------------------------*\
| =========                 |                                                 |
| \\      /  F ield         | OpenFOAM: The Open Source CFD Toolbox           |
|  \\    /   O peration     | Version:  2512                                  |
|   \\  /    A nd           | Website:  www.openfoam.com                      |
|    \\/     M anipulation  |                                                 |
\*---------------------------------------------------------------------------*/
FoamFile
{
    version     2.0;
    format      ascii;
    arch        "LSB;label=32;scalar=64";
    class       volScalarField;
    location    "146";
    object      p;
}
// * * * * * * * * * * * * * * * * * * * * * * * * * * * * * * * * * * * * * //

dimensions      [0 2 -2 0 0 0 0];

internalField   nonuniform List<scalar> 
220594
(
1.17665e-05
1.1754e-05
1.17217e-05
1.16699e-05
1.15978e-05
1.15023e-05
1.13794e-05
1.12243e-05
1.1031e-05
1.07928e-05
1.05014e-05
1.01479e-05
9.72209e-06
9.21308e-06
8.60958e-06
7.90039e-06
7.07532e-06
6.12615e-06
5.04808e-06
3.84129e-06
2.51273e-06
1.07778e-06
-4.38323e-07
-1.99986e-06
-3.56099e-06
-5.06766e-06
-6.46109e-06
-7.68287e-06
-8.68098e-06
-9.416e-06
-9.86605e-06
-1.00296e-05
-9.92499e-06
-9.58735e-06
-9.06296e-06
-8.40304e-06
-7.65793e-06
-6.8728e-06
-6.0851e-06
-5.32356e-06
-4.60852e-06
-3.9528e-06
-3.36309e-06
-2.84129e-06
-2.38588e-06
-1.99298e-06
-1.65735e-06
-1.37305e-06
-1.13395e-06
-9.3411e-07
-7.6794e-07
-6.30381e-07
-5.16927e-07
-4.23641e-07
-3.47133e-07
-2.8451e-07
-2.33332e-07
-1.91556e-07
-1.57479e-07
-1.2969e-07
-1.07031e-07
-8.85464e-08
-7.34589e-08
-6.11319e-08
-5.10455e-08
-4.27755e-08
-3.59761e-08
-3.03662e-08
-2.57184e-08
-2.18484e-08
-1.86068e-08
-1.58705e-08
-1.35377e-08
-1.15231e-08
-9.75608e-09
-8.1788e-09
-6.74454e-09
-5.41884e-09
-4.09177e-09
-3.3736e-09
1.17703e-05
1.17578e-05
1.17259e-05
1.16746e-05
1.16031e-05
1.15084e-05
1.13867e-05
1.12328e-05
1.10411e-05
1.08046e-05
1.05153e-05
1.01641e-05
9.74066e-06
9.23415e-06
8.63309e-06
7.92612e-06
7.10278e-06
6.15457e-06
5.07632e-06
3.86784e-06
2.5357e-06
1.09502e-06
-4.29122e-07
-2.00087e-06
-3.57394e-06
-5.09351e-06
-6.49967e-06
-7.73268e-06
-8.73924e-06
-9.47887e-06
-9.92917e-06
-1.00887e-05
-9.97649e-06
-9.62887e-06
-9.09342e-06
-8.42256e-06
-7.66759e-06
-6.87421e-06
-6.0801e-06
-5.31398e-06
-4.59598e-06
-3.93867e-06
-3.34843e-06
-2.82688e-06
-2.37223e-06
-1.98044e-06
-1.64608e-06
-1.3631e-06
-1.12531e-06
-9.26685e-07
-7.6163e-07
-6.25065e-07
-5.12482e-07
-4.19949e-07
-3.44082e-07
-2.82002e-07
-2.31279e-07
-1.89881e-07
-1.56116e-07
-1.28585e-07
-1.06135e-07
-8.78228e-08
-7.28748e-08
-6.0661e-08
-5.06663e-08
-4.24702e-08
-3.57303e-08
-3.0168e-08
-2.55584e-08
-2.17193e-08
-1.85028e-08
-1.57872e-08
-1.34718e-08
-1.14717e-08
-9.71678e-09
-8.14914e-09
-6.72186e-09
-5.39929e-09
-4.07668e-09
-3.319e-09
1.17775e-05
1.17654e-05
1.1734e-05
1.16837e-05
1.16135e-05
1.15206e-05
1.14009e-05
1.12497e-05
1.1061e-05
1.08281e-05
1.05428e-05
1.01959e-05
9.77733e-06
9.27577e-06
8.67957e-06
7.97701e-06
7.15716e-06
6.21091e-06
5.13239e-06
3.92064e-06
2.58152e-06
1.12954e-06
-4.10467e-07
-2.00244e-06
-3.59925e-06
-5.14447e-06
-6.57601e-06
-7.83148e-06
-8.85495e-06
-9.60384e-06
-1.00547e-05
-1.02061e-05
-1.00788e-05
-9.7113e-06
-9.15381e-06
-8.46121e-06
-7.68663e-06
-6.87688e-06
-6.07009e-06
-5.2949e-06
-4.57107e-06
-3.91063e-06
-3.31935e-06
-2.7983e-06
-2.34521e-06
-1.9556e-06
-1.62376e-06
-1.34341e-06
-1.10819e-06
-9.1198e-07
-7.49132e-07
-6.14536e-07
-5.03677e-07
-4.12633e-07
-3.38037e-07
-2.7703e-07
-2.27207e-07
-1.86558e-07
-1.53413e-07
-1.26392e-07
-1.04359e-07
-8.63866e-08
-7.17153e-08
-5.9726e-08
-4.99132e-08
-4.18639e-08
-3.52418e-08
-2.97741e-08
-2.52404e-08
-2.14626e-08
-1.8296e-08
-1.56217e-08
-1.33407e-08
-1.13697e-08
-9.63881e-09
-8.0906e-09
-6.67775e-09
-5.36358e-09
-4.04454e-09
-3.26476e-09
1.17883e-05
1.17764e-05
1.1746e-05
1.16971e-05
1.16288e-05
1.15385e-05
1.14219e-05
1.12745e-05
1.10903e-05
1.08626e-05
1.05833e-05
1.0243e-05
9.83148e-06
9.33727e-06
8.74832e-06
8.05238e-06
7.2378e-06
6.29458e-06
5.21581e-06
3.99939e-06
2.65006e-06
1.18145e-06
-3.82053e-07
-2.00408e-06
-3.63627e-06
-5.21985e-06
-6.6894e-06
-7.97857e-06
-9.02744e-06
-9.79024e-06
-1.02418e-05
-1.03811e-05
-1.0231e-05
-9.83354e-06
-9.243e-06
-8.51791e-06
-7.71414e-06
-6.88012e-06
-6.05459e-06
-5.26608e-06
-4.53375e-06
-3.86879e-06
-3.2761e-06
-2.75589e-06
-2.30516e-06
-1.91885e-06
-1.59078e-06
-1.31433e-06
-1.08293e-06
-8.90304e-07
-7.3072e-07
-5.99032e-07
-4.90719e-07
-4.01872e-07
-3.29149e-07
-2.69724e-07
-2.21227e-07
-1.81682e-07
-1.49449e-07
-1.23177e-07
-1.01759e-07
-8.42864e-08
-7.00223e-08
-5.83634e-08
-4.8818e-08
-4.09842e-08
-3.45354e-08
-2.92064e-08
-2.4784e-08
-2.10959e-08
-1.80024e-08
-1.53882e-08
-1.31572e-08
-1.12276e-08
-9.53117e-09
-8.01056e-09
-6.61843e-09
-5.31768e-09
-4.00669e-09
-3.22396e-09
1.18021e-05
1.17908e-05
1.17615e-05
1.17144e-05
1.16487e-05
1.15616e-05
1.14492e-05
1.13067e-05
1.11284e-05
1.09075e-05
1.06359e-05
1.03042e-05
9.90197e-06
9.41743e-06
8.83804e-06
8.15089e-06
7.34338e-06
6.40436e-06
5.32552e-06
4.10327e-06
2.74085e-06
1.25067e-06
-3.43503e-07
-2.00499e-06
-3.68383e-06
-5.3182e-06
-6.83823e-06
-8.17226e-06
-9.25499e-06
-1.00363e-05
-1.04887e-05
-1.06117e-05
-1.0431e-05
-9.99361e-06
-9.35915e-06
-8.59109e-06
-7.74889e-06
-6.8831e-06
-6.03319e-06
-5.22746e-06
-4.48423e-06
-3.8136e-06
-3.21925e-06
-2.70031e-06
-2.25279e-06
-1.87087e-06
-1.54778e-06
-1.27648e-06
-1.05007e-06
-8.62133e-07
-7.06808e-07
-5.78908e-07
-4.73907e-07
-3.87914e-07
-3.17624e-07
-2.60253e-07
-2.13476e-07
-1.75361e-07
-1.4431e-07
-1.1901e-07
-9.83856e-08
-8.15613e-08
-6.78239e-08
-5.65924e-08
-4.73928e-08
-3.98378e-08
-3.36128e-08
-2.84632e-08
-2.41847e-08
-2.06127e-08
-1.76138e-08
-1.50775e-08
-1.29111e-08
-1.10353e-08
-9.38333e-09
-7.89878e-09
-6.53462e-09
-5.25405e-09
-3.95838e-09
-3.18879e-09
1.18189e-05
1.1808e-05
1.17802e-05
1.17353e-05
1.16727e-05
1.15896e-05
1.1482e-05
1.13455e-05
1.11743e-05
1.09617e-05
1.06995e-05
1.03783e-05
9.9874e-06
9.5147e-06
8.9471e-06
8.27084e-06
7.47223e-06
6.53868e-06
5.46019e-06
4.23127e-06
2.85331e-06
1.33715e-06
-2.94324e-07
-2.00413e-06
-3.74041e-06
-5.43762e-06
-7.02038e-06
-8.41033e-06
-9.53533e-06
-1.03397e-05
-1.07931e-05
-1.08955e-05
-1.06764e-05
-1.01891e-05
-9.49999e-06
-8.67881e-06
-7.78941e-06
-6.88484e-06
-6.00538e-06
-5.17896e-06
-4.42282e-06
-3.74561e-06
-3.14955e-06
-2.63238e-06
-2.18897e-06
-1.81253e-06
-1.49559e-06
-1.23059e-06
-1.0103e-06
-8.28065e-07
-6.77916e-07
-5.54612e-07
-4.53624e-07
-3.71085e-07
-3.03736e-07
-2.48846e-07
-2.04146e-07
-1.67757e-07
-1.38132e-07
-1.14004e-07
-9.43375e-08
-7.82939e-08
-6.51913e-08
-5.44747e-08
-4.56915e-08
-3.8472e-08
-3.2516e-08
-2.75817e-08
-2.34757e-08
-2.00428e-08
-1.71568e-08
-1.47131e-08
-1.26228e-08
-1.08099e-08
-9.20953e-09
-7.76667e-09
-6.43518e-09
-5.17924e-09
-3.90377e-09
-3.15619e-09
1.1838e-05
1.18278e-05
1.18015e-05
1.17593e-05
1.17002e-05
1.16216e-05
1.15197e-05
1.13901e-05
1.12271e-05
1.1024e-05
1.07727e-05
1.04637e-05
1.0086e-05
9.62713e-06
9.07339e-06
8.41005e-06
7.62214e-06
6.69542e-06
5.6179e-06
4.38187e-06
2.98644e-06
1.44051e-06
-2.34157e-07
-2.00039e-06
-3.80422e-06
-5.57574e-06
-7.23306e-06
-8.68972e-06
-9.86527e-06
-1.06972e-05
-1.11516e-05
-1.12289e-05
-1.09637e-05
-1.04166e-05
-9.66254e-06
-8.7786e-06
-7.83386e-06
-6.88419e-06
-5.97068e-06
-5.12066e-06
-4.35e-06
-3.66562e-06
-3.068e-06
-2.55323e-06
-2.11483e-06
-1.74494e-06
-1.43525e-06
-1.17764e-06
-9.64469e-07
-7.88856e-07
-6.447e-07
-5.26705e-07
-4.30342e-07
-3.51779e-07
-2.87811e-07
-2.3577e-07
-1.93453e-07
-1.59043e-07
-1.31052e-07
-1.08264e-07
-8.96938e-08
-7.45433e-08
-6.21669e-08
-5.20394e-08
-4.37328e-08
-3.68972e-08
-3.12495e-08
-2.65621e-08
-2.26544e-08
-1.93815e-08
-1.66261e-08
-1.42896e-08
-1.2288e-08
-1.05485e-08
-9.00877e-09
-7.61563e-09
-6.32429e-09
-5.10036e-09
-3.85224e-09
-3.13269e-09
1.18591e-05
1.18496e-05
1.18251e-05
1.17857e-05
1.17305e-05
1.16569e-05
1.15613e-05
1.14394e-05
1.12855e-05
1.1093e-05
1.08538e-05
1.05585e-05
1.01956e-05
9.75238e-06
9.21437e-06
8.56584e-06
7.79039e-06
6.87195e-06
5.79626e-06
4.55305e-06
3.13879e-06
1.56009e-06
-1.62782e-07
-1.99259e-06
-3.87314e-06
-5.72965e-06
-7.47272e-06
-9.00645e-06
-1.02405e-05
-1.11044e-05
-1.15596e-05
-1.16076e-05
-1.12885e-05
-1.06721e-05
-9.84329e-06
-8.88769e-06
-7.88031e-06
-6.88006e-06
-5.92874e-06
-5.05285e-06
-4.26656e-06
-3.57477e-06
-2.9759e-06
-2.46426e-06
-2.03179e-06
-1.66945e-06
-1.36802e-06
-1.11875e-06
-9.13591e-07
-7.45394e-07
-6.07926e-07
-4.95843e-07
-4.0462e-07
-3.30469e-07
-2.70247e-07
-2.21361e-07
-1.81678e-07
-1.49456e-07
-1.23268e-07
-1.01961e-07
-8.45993e-08
-7.04334e-08
-5.8857e-08
-4.93783e-08
-4.15959e-08
-3.5182e-08
-2.98721e-08
-2.54546e-08
-2.17628e-08
-1.86637e-08
-1.60492e-08
-1.38279e-08
-1.19208e-08
-1.02589e-08
-8.7826e-09
-7.44115e-09
-6.19158e-09
-5.00142e-09
-3.7829e-09
-3.09562e-09
1.18816e-05
1.18728e-05
1.18503e-05
1.1814e-05
1.17629e-05
1.16947e-05
1.16059e-05
1.14922e-05
1.13481e-05
1.11671e-05
1.09411e-05
1.06605e-05
1.03138e-05
9.88773e-06
9.36708e-06
8.73505e-06
7.97372e-06
7.06502e-06
5.9922e-06
4.74215e-06
3.30836e-06
1.69471e-06
-8.03194e-08
-1.97968e-06
-3.94491e-06
-5.89596e-06
-7.73501e-06
-9.35545e-06
-1.06556e-05
-1.15554e-05
-1.20114e-05
-1.20258e-05
-1.16454e-05
-1.09507e-05
-1.00382e-05
-9.00299e-06
-7.92673e-06
-6.87144e-06
-5.87944e-06
-4.9761e-06
-4.17358e-06
-3.47446e-06
-2.8749e-06
-2.36715e-06
-1.9415e-06
-1.58762e-06
-1.29534e-06
-1.05523e-06
-8.58804e-07
-6.98663e-07
-5.68436e-07
-4.62735e-07
-3.77049e-07
-3.07641e-07
-2.51441e-07
-2.05936e-07
-1.69076e-07
-1.39194e-07
-1.14936e-07
-9.52102e-08
-7.91407e-08
-6.6027e-08
-5.53064e-08
-4.65222e-08
-3.93017e-08
-3.33405e-08
-2.83939e-08
-2.42674e-08
-2.08093e-08
-1.78991e-08
-1.54388e-08
-1.33442e-08
-1.15418e-08
-9.9665e-09
-8.56177e-09
-7.27947e-09
-6.07879e-09
-4.92917e-09
-3.7454e-09
-3.08875e-09
1.1905e-05
1.1897e-05
1.18765e-05
1.18433e-05
1.17967e-05
1.17341e-05
1.16524e-05
1.15472e-05
1.14134e-05
1.12445e-05
1.10324e-05
1.07675e-05
1.0438e-05
1.00302e-05
9.52816e-06
8.91404e-06
8.16831e-06
7.27075e-06
6.20199e-06
4.9458e-06
3.4924e-06
1.8426e-06
1.2657e-08
-1.96081e-06
-4.01717e-06
-6.07079e-06
-8.01473e-06
-9.73046e-06
-1.11035e-05
-1.20429e-05
-1.24994e-05
-1.24762e-05
-1.20278e-05
-1.12468e-05
-1.02426e-05
-9.12124e-06
-7.97117e-06
-6.85756e-06
-5.823e-06
-4.8914e-06
-4.07259e-06
-3.36656e-06
-2.76696e-06
-2.2639e-06
-1.84591e-06
-1.50128e-06
-1.21886e-06
-9.88543e-07
-8.0141e-07
-6.49794e-07
-5.27204e-07
-4.28213e-07
-3.48336e-07
-2.83895e-07
-2.319e-07
-1.89925e-07
-1.5601e-07
-1.28566e-07
-1.06316e-07
-8.8234e-08
-7.35055e-08
-6.14829e-08
-5.16485e-08
-4.35824e-08
-3.69415e-08
-3.14458e-08
-2.6871e-08
-2.3041e-08
-1.98197e-08
-1.70998e-08
-1.47937e-08
-1.28248e-08
-1.11254e-08
-9.63413e-09
-8.29811e-09
-7.07205e-09
-5.91767e-09
-4.80674e-09
-3.65776e-09
-3.03842e-09
1.19287e-05
1.19215e-05
1.1903e-05
1.18731e-05
1.18309e-05
1.17741e-05
1.16995e-05
1.16032e-05
1.148e-05
1.13234e-05
1.11256e-05
1.08768e-05
1.05651e-05
1.01763e-05
9.69388e-06
9.09874e-06
8.36979e-06
7.48465e-06
6.42118e-06
5.15989e-06
3.68744e-06
2.00122e-06
1.14963e-07
-1.93552e-06
-4.08757e-06
-6.24987e-06
-8.30581e-06
-1.01239e-05
-1.15756e-05
-1.25578e-05
-1.30145e-05
-1.29501e-05
-1.24278e-05
-1.15537e-05
-1.04516e-05
-9.2391e-06
-8.01187e-06
-6.83803e-06
-5.76011e-06
-4.80022e-06
-3.96555e-06
-3.25328e-06
-2.65443e-06
-2.15683e-06
-1.74718e-06
-1.41241e-06
-1.14036e-06
-9.20256e-07
-7.42748e-07
-5.99925e-07
-4.85182e-07
-3.93068e-07
-3.19128e-07
-2.59754e-07
-2.12042e-07
-1.73661e-07
-1.42738e-07
-1.17772e-07
-9.75606e-08
-8.11481e-08
-6.7782e-08
-5.68691e-08
-4.79375e-08
-4.06043e-08
-3.45564e-08
-2.95381e-08
-2.53459e-08
-2.18223e-08
-1.88472e-08
-1.63267e-08
-1.41834e-08
-1.23486e-08
-1.07597e-08
-9.35956e-09
-8.09864e-09
-6.93478e-09
-5.83229e-09
-4.76491e-09
-3.65219e-09
-3.05859e-09
1.19521e-05
1.19457e-05
1.19293e-05
1.19025e-05
1.18647e-05
1.18137e-05
1.17463e-05
1.16587e-05
1.1546e-05
1.14019e-05
1.12184e-05
1.09858e-05
1.0692e-05
1.03226e-05
9.8602e-06
9.28468e-06
8.57334e-06
7.70164e-06
6.64464e-06
5.37949e-06
3.8891e-06
2.16722e-06
2.24686e-07
-1.90384e-06
-4.15394e-06
-6.42866e-06
-8.60138e-06
-1.05269e-05
-1.20615e-05
-1.30888e-05
-1.35455e-05
-1.3437e-05
-1.28363e-05
-1.18642e-05
-1.06599e-05
-9.35335e-06
-8.04741e-06
-6.81292e-06
-5.69198e-06
-4.70452e-06
-3.8549e-06
-3.13729e-06
-2.54e-06
-2.04853e-06
-1.64775e-06
-1.32322e-06
-1.06182e-06
-8.52102e-07
-6.84329e-07
-5.50359e-07
-4.43488e-07
-3.58251e-07
-2.90235e-07
-2.35905e-07
-1.92449e-07
-1.57631e-07
-1.29674e-07
-1.07158e-07
-8.89586e-08
-7.41907e-08
-6.21641e-08
-5.23401e-08
-4.42921e-08
-3.76742e-08
-3.22024e-08
-2.76453e-08
-2.38203e-08
-2.05886e-08
-1.78463e-08
-1.55131e-08
-1.35219e-08
-1.1811e-08
-1.03232e-08
-9.00534e-09
-7.8113e-09
-6.70222e-09
-5.64533e-09
-4.61696e-09
-3.54039e-09
-2.98751e-09
1.19747e-05
1.1969e-05
1.19545e-05
1.19309e-05
1.18974e-05
1.18519e-05
1.17914e-05
1.17124e-05
1.16099e-05
1.14778e-05
1.13084e-05
1.10917e-05
1.08156e-05
1.04654e-05
1.00229e-05
9.46707e-06
8.77371e-06
7.91612e-06
6.86661e-06
5.59894e-06
4.09223e-06
2.33639e-06
3.39098e-07
-1.86644e-06
-4.21442e-06
-6.60243e-06
-8.89383e-06
-1.09293e-05
-1.25492e-05
-1.36229e-05
-1.40793e-05
-1.39251e-05
-1.32432e-05
-1.21704e-05
-1.08622e-05
-9.461e-06
-8.07685e-06
-6.78289e-06
-5.62039e-06
-4.60683e-06
-3.74353e-06
-3.02162e-06
-2.42663e-06
-1.94178e-06
-1.55015e-06
-1.23596e-06
-9.85181e-07
-7.85756e-07
-6.27566e-07
-5.02272e-07
-4.03089e-07
-3.2455e-07
-2.6229e-07
-2.12854e-07
-1.73522e-07
-1.42156e-07
-1.17067e-07
-9.69226e-08
-8.06712e-08
-6.74962e-08
-5.67686e-08
-4.80028e-08
-4.08162e-08
-3.48976e-08
-2.99907e-08
-2.58872e-08
-2.24249e-08
-1.94831e-08
-1.6974e-08
-1.48303e-08
-1.29944e-08
-1.14116e-08
-1.0029e-08
-8.79707e-09
-7.67314e-09
-6.62158e-09
-5.6125e-09
-4.62408e-09
-3.57913e-09
-3.04163e-09
1.19958e-05
1.19909e-05
1.19782e-05
1.19575e-05
1.1928e-05
1.18877e-05
1.18338e-05
1.17629e-05
1.16701e-05
1.15494e-05
1.13932e-05
1.11917e-05
1.09326e-05
1.06007e-05
1.01776e-05
9.641e-06
8.96541e-06
8.12213e-06
7.08082e-06
5.81196e-06
4.29089e-06
2.50366e-06
4.54645e-07
-1.82472e-06
-4.26758e-06
-6.7665e-06
-9.17506e-06
-1.13199e-05
-1.30249e-05
-1.41452e-05
-1.46012e-05
-1.44006e-05
-1.36373e-05
-1.2464e-05
-1.10531e-05
-9.55944e-06
-8.09982e-06
-6.74922e-06
-5.54773e-06
-4.51018e-06
-3.63479e-06
-2.90966e-06
-2.3176e-06
-1.83962e-06
-1.45712e-06
-1.15307e-06
-9.12599e-07
-7.23077e-07
-5.74058e-07
-4.57031e-07
-3.65148e-07
-2.9295e-07
-2.36124e-07
-1.91296e-07
-1.55841e-07
-1.27712e-07
-1.05311e-07
-8.73805e-08
-7.29435e-08
-6.12478e-08
-5.17232e-08
-4.39345e-08
-3.75404e-08
-3.22622e-08
-2.78696e-08
-2.41757e-08
-2.10378e-08
-1.83531e-08
-1.60493e-08
-1.40714e-08
-1.23711e-08
-1.08994e-08
-9.60736e-09
-8.44864e-09
-7.38361e-09
-6.3799e-09
-5.41072e-09
-4.457e-09
-3.44569e-09
-2.95004e-09
1.20149e-05
1.20107e-05
1.19997e-05
1.19817e-05
1.19558e-05
1.19203e-05
1.18724e-05
1.18088e-05
1.17249e-05
1.16147e-05
1.14708e-05
1.12833e-05
1.10398e-05
1.07251e-05
1.03199e-05
9.8015e-06
9.14287e-06
8.31354e-06
7.28071e-06
6.01181e-06
4.47857e-06
2.6633e-06
5.67019e-07
-1.78076e-06
-4.31255e-06
-6.91641e-06
-9.43672e-06
-1.16866e-05
-1.34739e-05
-1.46393e-05
-1.50947e-05
-1.48491e-05
-1.40066e-05
-1.27365e-05
-1.12276e-05
-9.64657e-06
-8.11652e-06
-6.71375e-06
-5.47686e-06
-4.41798e-06
-3.53227e-06
-2.80491e-06
-2.21617e-06
-1.74502e-06
-1.37128e-06
-1.07682e-06
-8.45988e-07
-6.65671e-07
-5.25135e-07
-4.15727e-07
-3.30552e-07
-2.64166e-07
-2.12314e-07
-1.717e-07
-1.39786e-07
-1.14616e-07
-9.46691e-08
-7.87636e-08
-6.59865e-08
-5.56458e-08
-4.72254e-08
-4.03363e-08
-3.46744e-08
-2.99901e-08
-2.60759e-08
-2.27642e-08
-1.99303e-08
-1.74875e-08
-1.53785e-08
-1.35596e-08
-1.19905e-08
-1.06272e-08
-9.42384e-09
-8.33653e-09
-7.32836e-09
-6.37007e-09
-5.43772e-09
-4.51402e-09
-3.52452e-09
-3.03172e-09
1.20316e-05
1.2028e-05
1.20184e-05
1.20027e-05
1.19801e-05
1.19487e-05
1.19062e-05
1.1849e-05
1.17729e-05
1.1672e-05
1.15389e-05
1.13638e-05
1.11343e-05
1.08348e-05
1.04458e-05
9.94377e-06
9.30062e-06
8.48425e-06
7.45971e-06
6.19163e-06
4.64851e-06
2.80912e-06
6.71353e-07
-1.73731e-06
-4.34906e-06
-7.04811e-06
-9.67059e-06
-1.20171e-05
-1.38806e-05
-1.50879e-05
-1.55428e-05
-1.52551e-05
-1.43392e-05
-1.29798e-05
-1.1381e-05
-9.72091e-06
-8.12778e-06
-6.67885e-06
-5.41107e-06
-4.33395e-06
-3.43978e-06
-2.71106e-06
-2.12578e-06
-1.66106e-06
-1.29537e-06
-1.00959e-06
-7.87401e-07
-6.15293e-07
-4.82286e-07
-3.79615e-07
-3.00351e-07
-2.39073e-07
-1.91579e-07
-1.54648e-07
-1.25824e-07
-1.03228e-07
-8.54127e-08
-7.12596e-08
-5.9914e-08
-5.07374e-08
-4.32617e-08
-3.71392e-08
-3.20987e-08
-2.79158e-08
-2.44025e-08
-2.14082e-08
-1.88238e-08
-1.65781e-08
-1.46265e-08
-1.29361e-08
-1.14732e-08
-1.01978e-08
-9.06622e-09
-8.03638e-09
-7.07356e-09
-6.15127e-09
-5.2485e-09
-4.35078e-09
-3.38803e-09
-2.93319e-09
1.20454e-05
1.20423e-05
1.2034e-05
1.20202e-05
1.20003e-05
1.19724e-05
1.19342e-05
1.18824e-05
1.18129e-05
1.17198e-05
1.15957e-05
1.1431e-05
1.12133e-05
1.09267e-05
1.05514e-05
1.00634e-05
9.43358e-06
8.62856e-06
7.61153e-06
6.34478e-06
4.79399e-06
2.9349e-06
7.62531e-07
-1.69751e-06
-4.37737e-06
-7.15814e-06
-9.86897e-06
-1.22996e-05
-1.42297e-05
-1.54738e-05
-1.59283e-05
-1.56036e-05
-1.46233e-05
-1.31859e-05
-1.15095e-05
-9.78151e-06
-8.13483e-06
-6.64713e-06
-5.35375e-06
-4.26175e-06
-3.36095e-06
-2.63152e-06
-2.0495e-06
-1.59045e-06
-1.2317e-06
-9.53323e-07
-7.38475e-07
-5.73295e-07
-4.46623e-07
-3.49604e-07
-2.75291e-07
-2.18282e-07
-1.74428e-07
-1.40572e-07
-1.14326e-07
-9.38802e-08
-7.78466e-08
-6.51595e-08
-5.50124e-08
-4.68114e-08
-4.0129e-08
-3.46521e-08
-3.01367e-08
-2.63787e-08
-2.3206e-08
-2.04817e-08
-1.811e-08
-1.60323e-08
-1.42158e-08
-1.26361e-08
-1.12651e-08
-1.00659e-08
-8.99618e-09
-8.01489e-09
-7.0891e-09
-6.1947e-09
-5.31318e-09
-4.43178e-09
-3.47897e-09
-3.01768e-09
1.2056e-05
1.20532e-05
1.20459e-05
1.20336e-05
1.20158e-05
1.19906e-05
1.19558e-05
1.19082e-05
1.18437e-05
1.17566e-05
1.16396e-05
1.1483e-05
1.12744e-05
1.09979e-05
1.06335e-05
1.01565e-05
9.53729e-06
8.74137e-06
7.73054e-06
6.46522e-06
4.90886e-06
3.03475e-06
8.35598e-07
-1.66462e-06
-4.39815e-06
-7.24375e-06
-1.00251e-05
-1.25231e-05
-1.45071e-05
-1.57809e-05
-1.62351e-05
-1.58806e-05
-1.48482e-05
-1.33482e-05
-1.16097e-05
-9.82797e-06
-8.13921e-06
-6.62134e-06
-5.30821e-06
-4.20492e-06
-3.29924e-06
-2.56951e-06
-1.99022e-06
-1.53574e-06
-1.18249e-06
-9.09939e-07
-7.00824e-07
-5.41036e-07
-4.19276e-07
-3.26627e-07
-2.56129e-07
-2.02404e-07
-1.6134e-07
-1.29834e-07
-1.05556e-07
-8.67465e-08
-7.20646e-08
-6.04857e-08
-5.12403e-08
-4.37696e-08
-3.76778e-08
-3.26789e-08
-2.85502e-08
-2.51034e-08
-2.2178e-08
-1.96476e-08
-1.74267e-08
-1.5467e-08
-1.37447e-08
-1.22424e-08
-1.09363e-08
-9.79142e-09
-8.76597e-09
-7.81948e-09
-6.92009e-09
-6.04551e-09
-5.17953e-09
-4.31174e-09
-3.3744e-09
-2.93938e-09
1.20632e-05
1.20606e-05
1.20539e-05
1.20427e-05
1.20262e-05
1.20028e-05
1.19704e-05
1.19256e-05
1.18646e-05
1.17816e-05
1.16694e-05
1.15184e-05
1.1316e-05
1.10465e-05
1.06894e-05
1.02201e-05
9.60815e-06
8.81857e-06
7.81212e-06
6.54795e-06
4.98796e-06
3.10371e-06
8.86244e-07
-1.64162e-06
-4.41227e-06
-7.30293e-06
-1.01335e-05
-1.26789e-05
-1.47006e-05
-1.59955e-05
-1.64495e-05
-1.6074e-05
-1.5005e-05
-1.34611e-05
-1.16793e-05
-9.86021e-06
-8.14242e-06
-6.60384e-06
-5.27726e-06
-4.16632e-06
-3.2574e-06
-2.52755e-06
-1.95018e-06
-1.49885e-06
-1.14937e-06
-8.8079e-07
-6.75574e-07
-5.19446e-07
-4.01013e-07
-3.1132e-07
-2.434e-07
-1.9189e-07
-1.52708e-07
-1.22787e-07
-9.98341e-08
-8.21274e-08
-6.83571e-08
-5.75255e-08
-4.88878e-08
-4.19086e-08
-3.62141e-08
-3.15367e-08
-2.76681e-08
-2.44303e-08
-2.16706e-08
-1.92693e-08
-1.71479e-08
-1.5265e-08
-1.36035e-08
-1.21508e-08
-1.08862e-08
-9.77557e-09
-8.77742e-09
-7.85123e-09
-6.96571e-09
-6.09981e-09
-5.2389e-09
-4.37386e-09
-3.43641e-09
-2.99287e-09
1.20666e-05
1.20641e-05
1.20577e-05
1.2047e-05
1.20313e-05
1.20088e-05
1.19775e-05
1.19342e-05
1.18749e-05
1.17939e-05
1.16842e-05
1.15359e-05
1.13368e-05
1.10707e-05
1.07174e-05
1.02518e-05
9.64363e-06
8.85726e-06
7.85302e-06
6.58942e-06
5.02756e-06
3.13811e-06
9.11276e-07
-1.63077e-06
-4.4205e-06
-7.33438e-06
-1.01904e-05
-1.27602e-05
-1.48016e-05
-1.61075e-05
-1.65615e-05
-1.61752e-05
-1.50873e-05
-1.35207e-05
-1.17165e-05
-9.87832e-06
-8.14567e-06
-6.5965e-06
-5.26302e-06
-4.14814e-06
-3.23751e-06
-2.50752e-06
-1.93105e-06
-1.48122e-06
-1.13357e-06
-8.66917e-07
-6.63594e-07
-5.09239e-07
-3.92416e-07
-3.0415e-07
-2.37471e-07
-1.87022e-07
-1.48736e-07
-1.19566e-07
-9.72386e-08
-8.00493e-08
-6.67038e-08
-5.62172e-08
-4.78568e-08
-4.10985e-08
-3.55796e-08
-3.10421e-08
-2.72848e-08
-2.41346e-08
-2.14423e-08
-1.90913e-08
-1.70063e-08
-1.51497e-08
-1.35079e-08
-1.20711e-08
-1.082e-08
-9.72089e-09
-8.73191e-09
-7.81213e-09
-6.93019e-09
-6.06555e-09
-5.2045e-09
-4.3391e-09
-3.40286e-09
-2.96581e-09
1.20662e-05
1.20638e-05
1.20574e-05
1.20467e-05
1.20309e-05
1.20084e-05
1.19771e-05
1.19337e-05
1.18743e-05
1.17934e-05
1.16835e-05
1.15352e-05
1.1336e-05
1.10698e-05
1.07164e-05
1.02507e-05
9.64242e-06
8.85592e-06
7.85153e-06
6.58777e-06
5.02572e-06
3.13607e-06
9.09004e-07
-1.63329e-06
-4.42329e-06
-7.33746e-06
-1.01937e-05
-1.27639e-05
-1.48055e-05
-1.61117e-05
-1.65658e-05
-1.61795e-05
-1.50916e-05
-1.35249e-05
-1.17207e-05
-9.88237e-06
-8.14959e-06
-6.60025e-06
-5.26656e-06
-4.15146e-06
-3.24057e-06
-2.51033e-06
-1.93361e-06
-1.48355e-06
-1.13567e-06
-8.68805e-07
-6.65286e-07
-5.10753e-07
-3.93768e-07
-3.05356e-07
-2.38546e-07
-1.87978e-07
-1.49587e-07
-1.20322e-07
-9.79114e-08
-8.06489e-08
-6.72392e-08
-5.66955e-08
-4.82838e-08
-4.14789e-08
-3.59178e-08
-3.13423e-08
-2.75512e-08
-2.43707e-08
-2.16507e-08
-1.92738e-08
-1.71644e-08
-1.52851e-08
-1.36226e-08
-1.21676e-08
-1.09011e-08
-9.78896e-09
-8.7888e-09
-7.85894e-09
-6.96744e-09
-6.09348e-09
-5.22342e-09
-4.34974e-09
-3.40654e-09
-2.96498e-09
1.20621e-05
1.20595e-05
1.20528e-05
1.20415e-05
1.2025e-05
1.20016e-05
1.1969e-05
1.19242e-05
1.18629e-05
1.17798e-05
1.16674e-05
1.15162e-05
1.13137e-05
1.10438e-05
1.06865e-05
1.02168e-05
9.60455e-06
8.81457e-06
7.80767e-06
6.543e-06
4.98245e-06
3.09759e-06
8.79454e-07
-1.64915e-06
-4.4206e-06
-7.31212e-06
-1.01436e-05
-1.26898e-05
-1.47123e-05
-1.60078e-05
-1.64622e-05
-1.60868e-05
-1.50177e-05
-1.34737e-05
-1.16916e-05
-9.87226e-06
-8.1541e-06
-6.61503e-06
-5.28783e-06
-4.17621e-06
-3.26655e-06
-2.53595e-06
-1.95784e-06
-1.50579e-06
-1.15564e-06
-8.86427e-07
-6.80628e-07
-5.23965e-07
-4.05048e-07
-3.14918e-07
-2.46605e-07
-1.94741e-07
-1.55241e-07
-1.25036e-07
-1.01834e-07
-8.39073e-08
-6.99442e-08
-5.89415e-08
-5.01502e-08
-4.30318e-08
-3.72115e-08
-3.24214e-08
-2.84525e-08
-2.51248e-08
-2.22833e-08
-1.98061e-08
-1.76133e-08
-1.56642e-08
-1.39427e-08
-1.24377e-08
-1.11287e-08
-9.98104e-09
-8.95132e-09
-7.99693e-09
-7.08482e-09
-6.19312e-09
-5.30739e-09
-4.41951e-09
-3.46252e-09
-3.00403e-09
1.20543e-05
1.20515e-05
1.20441e-05
1.20318e-05
1.20138e-05
1.19885e-05
1.19535e-05
1.19058e-05
1.1841e-05
1.17537e-05
1.16364e-05
1.14795e-05
1.12705e-05
1.09936e-05
1.06287e-05
1.01512e-05
9.53132e-06
8.73473e-06
7.72316e-06
6.45702e-06
4.89975e-06
3.02463e-06
8.24367e-07
-1.67707e-06
-4.41192e-06
-7.25892e-06
-1.00417e-05
-1.25412e-05
-1.45263e-05
-1.58012e-05
-1.62559e-05
-1.59016e-05
-1.48691e-05
-1.33688e-05
-1.163e-05
-9.84781e-06
-8.15844e-06
-6.63975e-06
-5.32562e-06
-4.2212e-06
-3.31432e-06
-2.58337e-06
-2.00287e-06
-1.54722e-06
-1.19286e-06
-9.19269e-07
-7.09193e-07
-5.48526e-07
-4.25967e-07
-3.32596e-07
-2.61449e-07
-2.07139e-07
-1.6555e-07
-1.33576e-07
-1.08884e-07
-8.97104e-08
-7.47087e-08
-6.28459e-08
-5.33456e-08
-4.5644e-08
-3.93434e-08
-3.41571e-08
-2.98612e-08
-2.62643e-08
-2.32023e-08
-2.05449e-08
-1.82049e-08
-1.61344e-08
-1.43115e-08
-1.27209e-08
-1.13396e-08
-1.01313e-08
-9.05152e-09
-8.05639e-09
-7.11132e-09
-6.19269e-09
-5.28454e-09
-4.37807e-09
-3.40788e-09
-2.94908e-09
1.2043e-05
1.20398e-05
1.20314e-05
1.20176e-05
1.19975e-05
1.19694e-05
1.1931e-05
1.1879e-05
1.18091e-05
1.17157e-05
1.15912e-05
1.14261e-05
1.12078e-05
1.09206e-05
1.05447e-05
1.00559e-05
9.42529e-06
8.61934e-06
7.60129e-06
6.33341e-06
4.78136e-06
2.92088e-06
7.46987e-07
-1.71472e-06
-4.39638e-06
-7.17907e-06
-9.89186e-06
-1.23244e-05
-1.42562e-05
-1.55016e-05
-1.59568e-05
-1.56325e-05
-1.46519e-05
-1.32143e-05
-1.15373e-05
-9.80877e-06
-8.16125e-06
-6.67245e-06
-5.37771e-06
-4.28418e-06
-3.38174e-06
-2.65064e-06
-2.06696e-06
-1.60632e-06
-1.24605e-06
-9.66244e-07
-7.50074e-07
-5.83682e-07
-4.55908e-07
-3.57892e-07
-2.8268e-07
-2.24862e-07
-1.80281e-07
-1.45776e-07
-1.18955e-07
-9.80036e-08
-8.15248e-08
-6.84426e-08
-5.7941e-08
-4.94193e-08
-4.24472e-08
-3.671e-08
-3.1962e-08
-2.79955e-08
-2.46329e-08
-2.17326e-08
-1.91963e-08
-1.69656e-08
-1.50102e-08
-1.33082e-08
-1.18327e-08
-1.05449e-08
-9.39911e-09
-8.35001e-09
-7.36107e-09
-6.40634e-09
-5.46757e-09
-4.53381e-09
-3.53617e-09
-3.04058e-09
1.20285e-05
1.20248e-05
1.20152e-05
1.19994e-05
1.19766e-05
1.1945e-05
1.19021e-05
1.18446e-05
1.17681e-05
1.16668e-05
1.15332e-05
1.13575e-05
1.11273e-05
1.08271e-05
1.04373e-05
9.93428e-06
9.29008e-06
8.47254e-06
7.44671e-06
6.17719e-06
4.63248e-06
2.79135e-06
6.51667e-07
-1.75908e-06
-4.37308e-06
-7.0745e-06
-9.6994e-06
-1.20482e-05
-1.39138e-05
-1.51227e-05
-1.55786e-05
-1.52912e-05
-1.43751e-05
-1.30153e-05
-1.1416e-05
-9.75512e-06
-8.16094e-06
-6.71064e-06
-5.44119e-06
-4.36217e-06
-3.46598e-06
-2.73519e-06
-2.14785e-06
-1.68113e-06
-1.31354e-06
-1.02596e-06
-8.02118e-07
-6.28484e-07
-4.94087e-07
-3.90157e-07
-3.09757e-07
-2.47454e-07
-1.9904e-07
-1.61286e-07
-1.31731e-07
-1.08491e-07
-9.01087e-08
-7.54519e-08
-6.36544e-08
-5.40695e-08
-4.62247e-08
-3.97703e-08
-3.44327e-08
-2.99829e-08
-2.62266e-08
-2.30075e-08
-2.02132e-08
-1.77726e-08
-1.56437e-08
-1.37963e-08
-1.21979e-08
-1.08068e-08
-9.57537e-09
-8.45655e-09
-7.41149e-09
-6.41151e-09
-5.43571e-09
-4.47159e-09
-3.45215e-09
-2.95491e-09
1.20112e-05
1.20069e-05
1.19958e-05
1.19776e-05
1.19515e-05
1.19157e-05
1.18675e-05
1.18035e-05
1.17191e-05
1.16084e-05
1.14639e-05
1.12757e-05
1.10314e-05
1.07158e-05
1.03096e-05
9.79005e-06
9.13016e-06
8.29943e-06
7.26505e-06
5.99443e-06
4.4593e-06
2.64195e-06
5.43398e-07
-1.80685e-06
-4.34128e-06
-6.94791e-06
-9.47102e-06
-1.17235e-05
-1.35133e-05
-1.46805e-05
-1.5137e-05
-1.48918e-05
-1.40492e-05
-1.27787e-05
-1.12691e-05
-9.68719e-06
-8.1559e-06
-6.75152e-06
-5.51267e-06
-4.45158e-06
-3.56351e-06
-2.83372e-06
-2.24257e-06
-1.76906e-06
-1.39307e-06
-1.09649e-06
-8.63686e-07
-6.81551e-07
-5.39356e-07
-4.28442e-07
-3.41906e-07
-2.74292e-07
-2.21335e-07
-1.79732e-07
-1.4694e-07
-1.20992e-07
-1.0036e-07
-8.38453e-08
-7.05222e-08
-5.96887e-08
-5.08228e-08
-4.35325e-08
-3.75109e-08
-3.25032e-08
-2.82948e-08
-2.47117e-08
-2.1625e-08
-1.8948e-08
-1.66254e-08
-1.46164e-08
-1.2882e-08
-1.13764e-08
-1.00497e-08
-8.85273e-09
-7.74413e-09
-6.69213e-09
-5.67269e-09
-4.67027e-09
-3.61316e-09
-3.06778e-09
1.19914e-05
1.19864e-05
1.19737e-05
1.19528e-05
1.1923e-05
1.18824e-05
1.18282e-05
1.17567e-05
1.16634e-05
1.15421e-05
1.13852e-05
1.11829e-05
1.09228e-05
1.05899e-05
1.01656e-05
9.62769e-06
8.95064e-06
8.10574e-06
7.06263e-06
5.79179e-06
4.26855e-06
2.47894e-06
4.2733e-07
-1.85483e-06
-4.30068e-06
-6.80271e-06
-9.21438e-06
-1.13622e-05
-1.30698e-05
-1.41921e-05
-1.46494e-05
-1.44494e-05
-1.36859e-05
-1.25122e-05
-1.11005e-05
-9.60585e-06
-8.14483e-06
-6.79243e-06
-5.58874e-06
-4.54872e-06
-3.67068e-06
-2.94281e-06
-2.34801e-06
-1.86737e-06
-1.48231e-06
-1.17584e-06
-9.33114e-07
-7.41507e-07
-5.90579e-07
-4.71818e-07
-3.78364e-07
-3.04746e-07
-2.46643e-07
-2.0067e-07
-1.64193e-07
-1.35161e-07
-1.11959e-07
-9.33182e-08
-7.82444e-08
-6.59742e-08
-5.59302e-08
-4.76732e-08
-4.08583e-08
-3.52012e-08
-3.04642e-08
-2.64534e-08
-2.30213e-08
-2.0064e-08
-1.75111e-08
-1.53103e-08
-1.34143e-08
-1.17727e-08
-1.03325e-08
-9.04222e-09
-7.85765e-09
-6.74378e-09
-5.67338e-09
-4.62884e-09
-3.53986e-09
-2.98486e-09
1.19697e-05
1.1964e-05
1.19494e-05
1.19256e-05
1.18917e-05
1.18458e-05
1.1785e-05
1.17054e-05
1.16023e-05
1.14695e-05
1.12992e-05
1.10816e-05
1.08045e-05
1.04531e-05
1.00093e-05
9.45199e-06
8.75698e-06
7.89757e-06
6.84605e-06
5.57617e-06
4.06702e-06
2.30852e-06
3.08354e-07
-1.90028e-06
-4.25153e-06
-6.64292e-06
-8.93769e-06
-1.09764e-05
-1.2599e-05
-1.36749e-05
-1.41327e-05
-1.39791e-05
-1.32973e-05
-1.2224e-05
-1.09149e-05
-9.5126e-06
-8.12691e-06
-6.83097e-06
-5.66608e-06
-4.64983e-06
-3.78363e-06
-3.05874e-06
-2.46075e-06
-1.97295e-06
-1.57849e-06
-1.26162e-06
-1.00834e-06
-8.06588e-07
-6.46263e-07
-5.19024e-07
-4.18078e-07
-3.37943e-07
-2.74245e-07
-2.23516e-07
-1.83031e-07
-1.50641e-07
-1.24645e-07
-1.03693e-07
-8.67193e-08
-7.28923e-08
-6.15752e-08
-5.22773e-08
-4.46116e-08
-3.82611e-08
-3.2962e-08
-2.84984e-08
-2.47028e-08
-2.14525e-08
-1.8661e-08
-1.6263e-08
-1.42021e-08
-1.24223e-08
-1.0867e-08
-9.48194e-09
-8.21985e-09
-7.04243e-09
-5.919e-09
-4.82866e-09
-3.69631e-09
-3.09052e-09
1.19466e-05
1.19401e-05
1.19235e-05
1.18966e-05
1.18584e-05
1.1807e-05
1.17391e-05
1.1651e-05
1.15375e-05
1.13926e-05
1.12082e-05
1.09746e-05
1.06797e-05
1.0309e-05
9.84508e-06
9.26793e-06
8.55478e-06
7.68108e-06
6.62187e-06
5.35428e-06
3.86123e-06
2.13646e-06
1.90794e-07
-1.94107e-06
-4.19468e-06
-6.473e-06
-8.64929e-06
-1.05782e-05
-1.21157e-05
-1.31453e-05
-1.36034e-05
-1.34957e-05
-1.28951e-05
-1.19225e-05
-1.07173e-05
-9.40953e-06
-8.10191e-06
-6.8653e-06
-5.74183e-06
-4.7515e-06
-3.89879e-06
-3.17799e-06
-2.57747e-06
-2.08283e-06
-1.679e-06
-1.35155e-06
-1.08742e-06
-8.75166e-07
-7.05055e-07
-5.6895e-07
-4.60138e-07
-3.73144e-07
-3.03541e-07
-2.47783e-07
-2.0305e-07
-1.67096e-07
-1.38129e-07
-1.14715e-07
-9.57108e-08
-8.02171e-08
-6.7534e-08
-5.71166e-08
-4.85336e-08
-4.14327e-08
-3.55225e-08
-3.05636e-08
-2.63677e-08
-2.27931e-08