# Moment      
# CofR        : (0.000000e+00 0.000000e+00 0.000000e+00)
#
# Time        	total_x total_y total_z	pressure_x pressure_y pressure_z	viscous_x viscous_y viscous_z
1              2.398959e-08 5.852732e-05 2.100866e-05 2.422251e-08 5.832159e-05 2.121708e-05 -2.329203e-10 2.057293e-07 -2.084223e-07
2              2.171044e-08 8.982473e-05 -1.981562e-05 2.474533e-08 8.917300e-05 -1.964559e-05 -3.034887e-09 6.517309e-07 -1.700264e-07
3              2.174670e-08 5.817980e-05 -1.058612e-05 2.379801e-08 5.738664e-05 -1.013304e-05 -2.051311e-09 7.931648e-07 -4.530750e-07
4              2.208206e-08 1.633753e-05 3.844170e-05 1.898254e-08 1.576672e-05 3.919430e-05 3.099521e-09 5.708105e-07 -7.526007e-07
5              1.252324e-08 -2.862104e-05 8.062856e-05 6.422092e-09 -2.882075e-05 8.140540e-05 6.101146e-09 1.997156e-07 -7.768332e-07
6              -1.314440e-09 -6.321237e-05 8.698638e-05 -7.490710e-09 -6.304874e-05 8.754169e-05 6.176270e-09 -1.636270e-07 -5.553056e-07
7              -1.017283e-08 -7.724921e-05 5.951804e-05 -1.734646e-08 -7.681507e-05 5.986359e-05 7.173637e-09 -4.341404e-07 -3.455539e-07
8              -1.311870e-08 -7.033182e-05 3.573404e-05 -2.104385e-08 -6.984858e-05 3.584800e-05 7.925147e-09 -4.832372e-07 -1.139628e-07
9              -1.316544e-08 -4.398385e-05 4.699176e-06 -2.055777e-08 -4.375042e-05 4.711436e-06 7.392329e-09 -2.334284e-07 -1.225989e-08
10             -9.774889e-09 -5.359203e-06 -3.257511e-05 -1.676702e-08 -5.553396e-06 -3.236056e-05 6.992134e-09 1.941922e-07 -2.145508e-07
11             -3.552473e-09 3.017140e-05 -6.949357e-05 -1.026910e-08 2.959511e-05 -6.904763e-05 6.716624e-09 5.762902e-07 -4.459441e-07
12             2.237343e-09 5.031780e-05 -8.042838e-05 -3.637884e-09 4.954803e-05 -7.993118e-05 5.875227e-09 7.697631e-07 -4.971914e-07
13             6.764103e-09 5.257406e-05 -6.841121e-05 1.754427e-09 5.170275e-05 -6.784714e-05 5.009676e-09 8.713079e-07 -5.640653e-07
14             9.073701e-09 4.389953e-05 -5.089417e-05 4.831070e-09 4.306148e-05 -5.035143e-05 4.242631e-09 8.380511e-07 -5.427365e-07
15             9.585392e-09 2.821185e-05 -2.973964e-05 5.951074e-09 2.746722e-05 -2.924670e-05 3.634319e-09 7.446306e-07 -4.929475e-07
16             8.589456e-09 8.088221e-06 -6.013284e-06 5.262170e-09 7.510880e-06 -5.569846e-06 3.327286e-09 5.773410e-07 -4.434380e-07
17             6.225713e-09 -1.340587e-05 2.366012e-05 3.047226e-09 -1.377096e-05 2.399943e-05 3.178487e-09 3.650831e-07 -3.393176e-07
18             3.527947e-09 -2.659683e-05 3.904503e-05 5.559146e-10 -2.675996e-05 3.924652e-05 2.972032e-09 1.631250e-07 -2.014873e-07
19             1.200059e-09 -3.052496e-05 4.076434e-05 -1.586845e-09 -3.053481e-05 4.084456e-05 2.786904e-09 9.852196e-09 -8.022331e-08
20             -4.111313e-10 -2.838747e-05 3.552996e-05 -3.031207e-09 -2.830407e-05 3.552133e-05 2.620076e-09 -8.339848e-08 8.634543e-09
21             -1.301966e-09 -2.184188e-05 2.630738e-05 -3.795239e-09 -2.172574e-05 2.624430e-05 2.493273e-09 -1.161431e-07 6.308592e-08
22             -1.489766e-09 -1.311459e-05 1.516367e-05 -3.880953e-09 -1.301396e-05 1.508058e-05 2.391188e-09 -1.006332e-07 8.309200e-08
23             -1.103603e-09 -3.746501e-06 3.574329e-06 -3.418573e-09 -3.692472e-06 3.502725e-06 2.314970e-09 -5.402877e-08 7.160406e-08
24             -3.825090e-10 4.357047e-06 -6.727233e-06 -2.624157e-09 4.352200e-06 -6.763998e-06 2.241647e-09 4.846908e-09 3.676445e-08
25             4.663563e-10 9.160901e-06 -1.650192e-05 -1.688122e-09 9.106716e-06 -1.648133e-05 2.154479e-09 5.418481e-08 -2.058659e-08
26             1.103106e-09 1.105869e-05 -1.828184e-05 -9.263092e-10 1.096817e-05 -1.821089e-05 2.029415e-09 9.051729e-08 -7.095334e-08
27             1.446501e-09 1.023363e-05 -1.616190e-05 -3.861684e-10 1.012749e-05 -1.605827e-05 1.832669e-09 1.061361e-07 -1.036257e-07
28             1.488711e-09 7.803804e-06 -1.188653e-05 -1.132771e-10 7.701769e-06 -1.176867e-05 1.601989e-09 1.020343e-07 -1.178649e-07
29             1.269916e-09 4.486834e-06 -6.506137e-06 -8.997193e-11 4.404923e-06 -6.390670e-06 1.359888e-09 8.191057e-08 -1.154667e-07
30             8.828164e-10 8.945265e-07 -6.587867e-07 -2.521923e-10 8.428394e-07 -5.605369e-07 1.135009e-09 5.168714e-08 -9.824976e-08
31             4.335404e-10 -2.225512e-06 4.784013e-06 -5.163707e-10 -2.242871e-06 4.853231e-06 9.499111e-10 1.735823e-08 -6.921784e-08
32             1.719142e-11 -4.155226e-06 8.435281e-06 -8.006247e-10 -4.139815e-06 8.470679e-06 8.178161e-10 -1.541164e-08 -3.539796e-08
33             -3.035857e-10 -4.778564e-06 9.377372e-06 -1.045648e-09 -4.736227e-06 9.382971e-06 7.420621e-10 -4.233674e-08 -5.598131e-09
34             -5.041339e-10 -4.513088e-06 8.078496e-06 -1.216411e-09 -4.452528e-06 8.064553e-06 7.122771e-10 -6.056047e-08 1.394266e-08
35             -5.833716e-10 -3.739701e-06 5.737817e-06 -1.299223e-09 -3.670345e-06 5.715779e-06 7.158512e-10 -6.935681e-08 2.203817e-08
36             -5.735497e-10 -2.640790e-06 2.874987e-06 -1.302880e-09 -2.569022e-06 2.855067e-06 7.293302e-10 -7.176834e-08 1.991924e-08
37             -5.164742e-10 -1.337011e-06 -2.095924e-07 -1.248617e-09 -1.267637e-06 -2.186570e-07 7.321430e-10 -6.937442e-08 9.064611e-09
38             -4.508195e-10 -1.223384e-07 -2.914460e-06 -1.163529e-09 -5.840531e-08 -2.907110e-06 7.127100e-10 -6.393307e-08 -7.350592e-09
39             -4.050748e-10 6.802475e-07 -4.344874e-06 -1.075426e-09 7.379822e-07 -4.321120e-06 6.703512e-10 -5.773475e-08 -2.375387e-08
40             -3.936646e-10 1.098509e-06 -4.400456e-06 -1.002698e-09 1.151358e-06 -4.364569e-06 6.090336e-10 -5.284919e-08 -3.588746e-08
41             -4.153830e-10 1.116573e-06 -3.579031e-06 -9.547590e-10 1.167133e-06 -3.536729e-06 5.393759e-10 -5.055917e-08 -4.230192e-08
42             -4.647422e-10 9.556036e-07 -2.377400e-06 -9.337660e-10 1.005691e-06 -2.333842e-06 4.690238e-10 -5.008781e-08 -4.355766e-08
43             -5.272820e-10 7.211054e-07 -1.014624e-06 -9.365842e-10 7.717212e-07 -9.742830e-07 4.093021e-10 -5.061572e-08 -4.034083e-08
44             -5.900420e-10 4.672742e-07 3.670054e-07 -9.568840e-10 5.191001e-07 4.005092e-07 3.668420e-10 -5.182596e-08 -3.350370e-08
45             -6.444263e-10 2.389619e-07 1.494559e-06 -9.877599e-10 2.924263e-07 1.519140e-06 3.433337e-10 -5.346448e-08 -2.458056e-08
46             -6.871163e-10 7.522491e-08 2.019803e-06 -1.023031e-09 1.303321e-07 2.035824e-06 3.359144e-10 -5.510719e-08 -1.602156e-08
47             -7.182012e-10 -1.767299e-08 1.908963e-06 -1.057768e-09 3.865228e-08 1.918754e-06 3.395664e-10 -5.632528e-08 -9.791400e-09
48             -7.392616e-10 -5.458790e-08 1.408210e-06 -1.088148e-09 2.456674e-09 1.414783e-06 3.488860e-10 -5.704457e-08 -6.573165e-09
49             -7.521743e-10 -4.888008e-08 7.739093e-07 -1.111650e-09 8.574538e-09 7.799477e-07 3.594758e-10 -5.745462e-08 -6.038318e-09
50             -7.598302e-10 -5.176983e-09 1.452261e-07 -1.127825e-09 5.251608e-08 1.527552e-07 3.679947e-10 -5.769307e-08 -7.529071e-09
51             -7.647063e-10 6.762967e-08 -3.829926e-07 -1.137648e-09 1.254025e-07 -3.727530e-07 3.729421e-10 -5.777285e-08 -1.023960e-08
52             -7.682931e-10 1.571701e-07 -7.484328e-07 -1.142825e-09 2.148257e-07 -7.350659e-07 3.745321e-10 -5.765554e-08 -1.336692e-08
53             -7.712528e-10 2.485340e-07 -9.189762e-07 -1.145191e-09 3.059064e-07 -9.027871e-07 3.739382e-10 -5.737232e-08 -1.618915e-08
54             -7.734500e-10 3.251157e-07 -8.931218e-07 -1.146319e-09 3.820917e-07 -8.749810e-07 3.728690e-10 -5.697601e-08 -1.814079e-08
55             -7.744181e-10 3.758607e-07 -7.109093e-07 -1.147369e-09 4.324137e-07 -6.919906e-07 3.729514e-10 -5.655303e-08 -1.891869e-08
56             -7.739400e-10 4.015208e-07 -4.520986e-07 -1.149086e-09 4.576521e-07 -4.335343e-07 3.751458e-10 -5.613135e-08 -1.856433e-08
57             -7.720837e-10 4.107430e-07 -2.054133e-07 -1.151833e-09 4.664226e-07 -1.880321e-07 3.797488e-10 -5.567957e-08 -1.738121e-08
58             -7.692715e-10 4.148181e-07 -2.170227e-08 -1.155607e-09 4.699537e-07 -5.932210e-09 3.863357e-10 -5.513555e-08 -1.577006e-08
59             -7.658692e-10 4.224881e-07 8.961275e-08 -1.160157e-09 4.769507e-07 1.036771e-07 3.942878e-10 -5.446256e-08 -1.406438e-08
60             -7.623342e-10 4.373859e-07 1.325277e-07 -1.165116e-09 4.911069e-07 1.450548e-07 4.027822e-10 -5.372102e-08 -1.252708e-08
61             -7.590127e-10 4.595858e-07 1.183834e-07 -1.170144e-09 5.125309e-07 1.296843e-07 4.111317e-10 -5.294515e-08 -1.130087e-08
62             -7.561111e-10 4.879210e-07 6.429798e-08 -1.174935e-09 5.400810e-07 7.476045e-08 4.188243e-10 -5.215994e-08 -1.046247e-08
63             -7.536470e-10 5.189326e-07 -9.938895e-09 -1.179309e-09 5.703243e-07 4.409758e-11 4.256617e-10 -5.139169e-08 -9.982993e-09
64             -7.514516e-10 5.449070e-07 -8.487572e-08 -1.183168e-09 5.955736e-07 -7.509623e-08 4.317161e-10 -5.066660e-08 -9.779489e-09
65             -7.493146e-10 5.585964e-07 -1.455989e-07 -1.186493e-09 6.086079e-07 -1.358633e-07 4.371783e-10 -5.001153e-08 -9.735576e-09
66             -7.470093e-10 5.595821e-07 -1.854871e-07 -1.189299e-09 6.090465e-07 -1.757305e-07 4.422892e-10 -4.946434e-08 -9.756664e-09
67             -7.444455e-10 5.533908e-07 -2.050208e-07 -1.191675e-09 6.023989e-07 -1.952424e-07 4.472298e-10 -4.900811e-08 -9.778407e-09
68             -7.416475e-10 5.469348e-07 -2.081365e-07 -1.193744e-09 5.955385e-07 -1.983799e-07 4.520963e-10 -4.860370e-08 -9.756548e-09
69             -7.386407e-10 5.453066e-07 -2.000837e-07 -1.195631e-09 5.935202e-07 -1.904245e-07 4.569908e-10 -4.821354e-08 -9.659239e-09
70             -7.355968e-10 5.512384e-07 -1.858616e-07 -1.197456e-09 5.990278e-07 -1.763899e-07 4.618592e-10 -4.778943e-08 -9.471754e-09
71             -7.326172e-10 5.646548e-07 -1.709562e-07 -1.199293e-09 6.119714e-07 -1.617573e-07 4.666759e-10 -4.731661e-08 -9.198915e-09
72             -7.298661e-10 5.837653e-07 -1.590837e-07 -1.201184e-09 6.305553e-07 -1.502061e-07 4.713175e-10 -4.679000e-08 -8.877653e-09
73             -7.274059e-10 6.054727e-07 -1.517411e-07 -1.203137e-09 6.516917e-07 -1.432036e-07 4.757309e-10 -4.621902e-08 -8.537431e-09
74             -7.252792e-10 6.264032e-07 -1.486011e-07 -1.205147e-09 6.720340e-07 -1.404031e-07 4.798675e-10 -4.563081e-08 -8.197953e-09
75             -7.234758e-10 6.443468e-07 -1.483982e-07 -1.207200e-09 6.893872e-07 -1.405258e-07 4.837247e-10 -4.504039e-08 -7.872352e-09
76             -7.218849e-10 6.587817e-07 -1.497128e-07 -1.209277e-09 7.032497e-07 -1.421486e-07 4.873916e-10 -4.446799e-08 -7.564207e-09
77             -7.204471e-10 6.704398e-07 -1.513329e-07 -1.211357e-09 7.143717e-07 -1.440585e-07 4.909096e-10 -4.393191e-08 -7.274423e-09
78             -7.191003e-10 6.804392e-07 -1.524701e-07 -1.213443e-09 7.238689e-07 -1.454583e-07 4.943423e-10 -4.342967e-08 -7.011814e-09
79             -7.178103e-10 6.896103e-07 -1.528788e-07 -1.215539e-09 7.325670e-07 -1.461070e-07 4.977286e-10 -4.295675e-08 -6.771855e-09
80             -7.165543e-10 6.983662e-07 -1.530009e-07 -1.217656e-09 7.408806e-07 -1.464546e-07 5.011021e-10 -4.251440e-08 -6.546342e-09
81             -7.153323e-10 7.070421e-07 -1.528109e-07 -1.219800e-09 7.491404e-07 -1.464778e-07 5.044673e-10 -4.209826e-08 -6.333041e-09
82             -7.141186e-10 7.154442e-07 -1.527392e-07 -1.221966e-09 7.571538e-07 -1.466078e-07 5.078474e-10 -4.170960e-08 -6.131462e-09
83             -7.129365e-10 7.227774e-07 -1.532726e-07 -1.224161e-09 7.641357e-07 -1.473284e-07 5.112245e-10 -4.135832e-08 -5.944284e-09
84             -7.118142e-10 7.281899e-07 -1.549589e-07 -1.226386e-09 7.692409e-07 -1.491835e-07 5.145714e-10 -4.105099e-08 -5.775366e-09
85             -7.107787e-10 7.312343e-07 -1.581731e-07 -1.228639e-09 7.720349e-07 -1.525426e-07 5.178606e-10 -4.080067e-08 -5.630491e-09
86             -7.098389e-10 7.324658e-07 -1.627465e-07 -1.230919e-09 7.730781e-07 -1.572348e-07 5.210805e-10 -4.061223e-08 -5.511757e-09
87             -7.089827e-10 7.326529e-07 -1.681847e-07 -1.233219e-09 7.731357e-07 -1.627654e-07 5.242359e-10 -4.048280e-08 -5.419311e-09
88             -7.081905e-10 7.325308e-07 -1.736888e-07 -1.235536e-09 7.729366e-07 -1.683390e-07 5.273459e-10 -4.040574e-08 -5.349820e-09
89             -7.074402e-10 7.329840e-07 -1.785528e-07 -1.237875e-09 7.733599e-07 -1.732545e-07 5.304353e-10 -4.037585e-08 -5.298299e-09
90             -7.067169e-10 7.345431e-07 -1.822681e-07 -1.240236e-09 7.749263e-07 -1.770128e-07 5.335193e-10 -4.038320e-08 -5.255367e-09
91             -7.060194e-10 7.371861e-07 -1.845511e-07 -1.242623e-09 7.776048e-07 -1.793383e-07 5.366036e-10 -4.041866e-08 -5.212833e-09
92             -7.053657e-10 7.402647e-07 -1.855889e-07 -1.245033e-09 7.807410e-07 -1.804209e-07 5.396677e-10 -4.047628e-08 -5.168026e-09
93             -7.047469e-10 7.432597e-07 -1.856777e-07 -1.247454e-09 7.838218e-07 -1.805581e-07 5.427068e-10 -4.056208e-08 -5.119598e-09
94             -7.041456e-10 7.456722e-07 -1.850467e-07 -1.249863e-09 7.863567e-07 -1.799778e-07 5.457170e-10 -4.068447e-08 -5.068860e-09
95             -7.035367e-10 7.473173e-07 -1.840069e-07 -1.252227e-09 7.881668e-07 -1.789892e-07 5.486907e-10 -4.084958e-08 -5.017684e-09
96             -7.028977e-10 7.481258e-07 -1.829111e-07 -1.254528e-09 7.891865e-07 -1.779413e-07 5.516306e-10 -4.106072e-08 -4.969794e-09
97             -7.022069e-10 7.485620e-07 -1.819869e-07 -1.256754e-09 7.898791e-07 -1.770593e-07 5.545472e-10 -4.131709e-08 -4.927617e-09
98             -7.014674e-10 7.488364e-07 -1.814798e-07 -1.258905e-09 7.904482e-07 -1.765864e-07 5.574379e-10 -4.161180e-08 -4.893392e-09
99             -7.006955e-10 7.486629e-07 -1.816677e-07 -1.260991e-09 7.906038e-07 -1.767990e-07 5.602959e-10 -4.194085e-08 -4.868781e-09
100            -6.998977e-10 7.482922e-07 -1.825732e-07 -1.263023e-09 7.905971e-07 -1.777178e-07 5.631255e-10 -4.230489e-08 -4.855435e-09
101            -6.990949e-10 7.478104e-07 -1.841188e-07 -1.265015e-09 7.905104e-07 -1.792646e-07 5.659199e-10 -4.270003e-08 -4.854171e-09
102            -6.982971e-10 7.473017e-07 -1.860591e-07 -1.266977e-09 7.904244e-07 -1.811949e-07 5.686803e-10 -4.312275e-08 -4.864242e-09
103            -6.975148e-10 7.465552e-07 -1.880351e-07 -1.268925e-09 7.901275e-07 -1.831511e-07 5.714098e-10 -4.357231e-08 -4.883948e-09
104            -6.967371e-10 7.457707e-07 -1.899421e-07 -1.270856e-09 7.898200e-07 -1.850301e-07 5.741192e-10 -4.404923e-08 -4.912038e-09
105            -6.959632e-10 7.452008e-07 -1.916350e-07 -1.272779e-09 7.897512e-07 -1.866888e-07 5.768157e-10 -4.455030e-08 -4.946148e-09
106            -6.951878e-10 7.448596e-07 -1.930540e-07 -1.274688e-09 7.899314e-07 -1.880699e-07 5.795007e-10 -4.507175e-08 -4.984049e-09
107            -6.944094e-10 7.444767e-07 -1.943032e-07 -1.276585e-09 7.900891e-07 -1.892785e-07 5.821753e-10 -4.561238e-08 -5.024737e-09
108            -6.936328e-10 7.438248e-07 -1.954932e-07 -1.278469e-09 7.899980e-07 -1.904247e-07 5.848360e-10 -4.617320e-08 -5.068427e-09
109            -6.928593e-10 7.430671e-07 -1.966863e-07 -1.280338e-09 7.898221e-07 -1.915713e-07 5.874783e-10 -4.675499e-08 -5.115046e-09
110            -6.920837e-10 7.424134e-07 -1.979334e-07 -1.282186e-09 7.897680e-07 -1.927689e-07 5.901027e-10 -4.735463e-08 -5.164570e-09
111            -6.913022e-10 7.419627e-07 -1.993307e-07 -1.284012e-09 7.899299e-07 -1.941135e-07 5.927096e-10 -4.796716e-08 -5.217188e-09
112            -6.905122e-10 7.417386e-07 -2.006887e-07 -1.285811e-09 7.903267e-07 -1.954164e-07 5.952986e-10 -4.858815e-08 -5.272293e-09
113            -6.897135e-10 7.416574e-07 -2.019581e-07 -1.287581e-09 7.908725e-07 -1.966290e-07 5.978674e-10 -4.921504e-08 -5.329124e-09
114            -6.889170e-10 7.416501e-07 -2.031656e-07 -1.289323e-09 7.914978e-07 -1.977793e-07 6.004063e-10 -4.984769e-08 -5.386337e-09
115            -6.881208e-10 7.417006e-07 -2.043184e-07 -1.291038e-09 7.921865e-07 -1.988740e-07 6.029168e-10 -5.048584e-08 -5.444429e-09
116            -6.873224e-10 7.417589e-07 -2.053863e-07 -1.292725e-09 7.928875e-07 -1.998821e-07 6.054026e-10 -5.112864e-08 -5.504265e-09
117            -6.865243e-10 7.418005e-07 -2.063520e-07 -1.294387e-09 7.935761e-07 -2.007863e-07 6.078627e-10 -5.177559e-08 -5.565690e-09
118            -6.857340e-10 7.418455e-07 -2.072022e-07 -1.296026e-09 7.942698e-07 -2.015737e-07 6.102917e-10 -5.242434e-08 -5.628501e-09
119            -6.849423e-10 7.419016e-07 -2.079772e-07 -1.297642e-09 7.949761e-07 -2.022836e-07 6.126994e-10 -5.307447e-08 -5.693687e-09
120            -6.841519e-10 7.419403e-07 -2.087307e-07 -1.299234e-09 7.956636e-07 -2.029688e-07 6.150821e-10 -5.372327e-08 -5.761967e-09
121            -6.833654e-10 7.419536e-07 -2.095264e-07 -1.300801e-09 7.963241e-07 -2.036939e-07 6.174355e-10 -5.437048e-08 -5.832567e-09
122            -6.825802e-10 7.419671e-07 -2.104229e-07 -1.302341e-09 7.969852e-07 -2.045168e-07 6.197607e-10 -5.501807e-08 -5.906037e-09
123            -6.817992e-10 7.420137e-07 -2.114478e-07 -1.303852e-09 7.976806e-07 -2.054661e-07 6.220528e-10 -5.566689e-08 -5.981696e-09
124            -6.810158e-10 7.421103e-07 -2.126091e-07 -1.305330e-09 7.984261e-07 -2.065518e-07 6.243145e-10 -5.631581e-08 -6.057231e-09
125            -6.802244e-10 7.422628e-07 -2.138924e-07 -1.306771e-09 7.992291e-07 -2.077607e-07 6.265465e-10 -5.696631e-08 -6.131700e-09
126            -6.794150e-10 7.424948e-07 -2.152055e-07 -1.308169e-09 8.001145e-07 -2.089989e-07 6.287538e-10 -5.761960e-08 -6.206650e-09
127            -6.785806e-10 7.427735e-07 -2.165864e-07 -1.309522e-09 8.010485e-07 -2.103064e-07 6.309416e-10 -5.827500e-08 -6.279982e-09
128            -6.777278e-10 7.431023e-07 -2.179737e-07 -1.310832e-09 8.020319e-07 -2.116222e-07 6.331045e-10 -5.892960e-08 -6.351582e-09
129            -6.768619e-10 7.434985e-07 -2.194091e-07 -1.312101e-09 8.030815e-07 -2.129879e-07 6.352389e-10 -5.958307e-08 -6.421124e-09
130            -6.759799e-10 7.439901e-07 -2.209191e-07 -1.313330e-09 8.042223e-07 -2.144323e-07 6.373498e-10 -6.023219e-08 -6.486874e-09
131            -6.750987e-10 7.445769e-07 -2.224288e-07 -1.314523e-09 8.054548e-07 -2.158823e-07 6.394241e-10 -6.087793e-08 -6.546494e-09
132            -6.742360e-10 7.452813e-07 -2.239260e-07 -1.315682e-09 8.068003e-07 -2.173184e-07 6.414456e-10 -6.151897e-08 -6.607631e-09
133            -6.733901e-10 7.461245e-07 -2.253967e-07 -1.316807e-09 8.082794e-07 -2.187290e-07 6.434166e-10 -6.215487e-08 -6.667724e-09
134            -6.725635e-10 7.471221e-07 -2.268307e-07 -1.317899e-09 8.099054e-07 -2.201063e-07 6.453351e-10 -6.278326e-08 -6.724359e-09
135            -6.717507e-10 7.482738e-07 -2.282713e-07 -1.318958e-09 8.116749e-07 -2.214964e-07 6.472069e-10 -6.340108e-08 -6.774893e-09
136            -6.709535e-10 7.496205e-07 -2.296437e-07 -1.319984e-09 8.136289e-07 -2.228234e-07 6.490304e-10 -6.400837e-08 -6.820315e-09
137            -6.701744e-10 7.511587e-07 -2.309514e-07 -1.320977e-09 8.157619e-07 -2.240881e-07 6.508021e-10 -6.460318e-08 -6.863321e-09
138            -6.694158e-10 7.528682e-07 -2.322098e-07 -1.321935e-09 8.180521e-07 -2.253022e-07 6.525190e-10 -6.518392e-08 -6.907578e-09
139            -6.686769e-10 7.547232e-07 -2.334444e-07 -1.322858e-09 8.204724e-07 -2.264941e-07 6.541814e-10 -6.574915e-08 -6.950365e-09
140            -6.679574e-10 7.566820e-07 -2.346751e-07 -1.323746e-09 8.229813e-07 -2.276851e-07 6.557886e-10 -6.629925e-08 -6.989955e-09
141            -6.672566e-10 7.587201e-07 -2.359088e-07 -1.324598e-09 8.255529e-07 -2.288792e-07 6.573410e-10 -6.683280e-08 -7.029608e-09
142            -6.665700e-10 7.608209e-07 -2.371666e-07 -1.325412e-09 8.281688e-07 -2.300933e-07 6.588425e-10 -6.734797e-08 -7.073370e-09
143            -6.658928e-10 7.630023e-07 -2.384167e-07 -1.326188e-09 8.308487e-07 -2.312954e-07 6.602957e-10 -6.784648e-08 -7.121349e-09
144            -6.652239e-10 7.652376e-07 -2.397369e-07 -1.326923e-09 8.335664e-07 -2.325666e-07 6.616993e-10 -6.832876e-08 -7.170323e-09
145            -6.645618e-10 7.675293e-07 -2.411321e-07 -1.327615e-09 8.363277e-07 -2.339165e-07 6.630536e-10 -6.879843e-08 -7.215648e-09
146            -6.639085e-10 7.698885e-07 -2.425999e-07 -1.328265e-09 8.391469e-07 -2.353436e-07 6.643565e-10 -6.925846e-08 -7.256314e-09
147            -6.632633e-10 7.723267e-07 -2.441409e-07 -1.328873e-09 8.420370e-07 -2.368461e-07 6.656094e-10 -6.971035e-08 -7.294818e-09
148            -6.626278e-10 7.748525e-07 -2.457519e-07 -1.329440e-09 8.450064e-07 -2.384214e-07 6.668127e-10 -7.015389e-08 -7.330537e-09
149            -6.619930e-10 7.774808e-07 -2.474225e-07 -1.329971e-09 8.480726e-07 -2.400579e-07 6.679778e-10 -7.059182e-08 -7.364603e-09
150            -6.613671e-10 7.802466e-07 -2.491402e-07 -1.330465e-09 8.512684e-07 -2.417429e-07 6.690979e-10 -7.102182e-08 -7.397392e-09
151            -6.607591e-10 7.831978e-07 -2.508938e-07 -1.330925e-09 8.546403e-07 -2.434662e-07 6.701654e-10 -7.144255e-08 -7.427587e-09
152            -6.601560e-10 7.863795e-07 -2.526629e-07 -1.331349e-09 8.582347e-07 -2.452111e-07 6.711930e-10 -7.185526e-08 -7.451790e-09
153            -6.595497e-10 7.897937e-07 -2.544357e-07 -1.331740e-09 8.620548e-07 -2.469679e-07 6.721908e-10 -7.226111e-08 -7.467784e-09
154            -6.589506e-10 7.934076e-07 -2.561931e-07 -1.332101e-09 8.660702e-07 -2.487173e-07 6.731507e-10 -7.266256e-08 -7.475833e-09
155            -6.583595e-10 7.971483e-07 -2.579203e-07 -1.332433e-09 8.702112e-07 -2.504434e-07 6.740733e-10 -7.306293e-08 -7.476903e-09
156            -6.577740e-10 8.009505e-07 -2.596147e-07 -1.332736e-09 8.744147e-07 -2.521431e-07 6.749621e-10 -7.346424e-08 -7.471621e-09
157            -6.571977e-10 8.047616e-07 -2.613043e-07 -1.333013e-09 8.786285e-07 -2.538431e-07 6.758151e-10 -7.386682e-08 -7.461186e-09
158            -6.566277e-10 8.085566e-07 -2.630017e-07 -1.333264e-09 8.828283e-07 -2.555547e-07 6.766366e-10 -7.427174e-08 -7.447015e-09
159            -6.560585e-10 8.123679e-07 -2.647053e-07 -1.333493e-09 8.870433e-07 -2.572745e-07 6.774343e-10 -7.467545e-08 -7.430806e-09
160            -6.554963e-10 8.162317e-07 -2.664351e-07 -1.333700e-09 8.913086e-07 -2.590231e-07 6.782036e-10 -7.507690e-08 -7.411978e-09
161            -6.549448e-10 8.201930e-07 -2.682235e-07 -1.333886e-09 8.956644e-07 -2.608328e-07 6.789411e-10 -7.547141e-08 -7.390669e-09
162            -6.544027e-10 8.242470e-07 -2.700665e-07 -1.334051e-09 9.001105e-07 -2.626977e-07 6.796485e-10 -7.586351e-08 -7.368800e-09
163            -6.538701e-10 8.283695e-07 -2.719434e-07 -1.334197e-09 9.046266e-07 -2.645981e-07 6.803273e-10 -7.625708e-08 -7.345258e-09
164            -6.533435e-10 8.325507e-07 -2.738251e-07 -1.334325e-09 9.092026e-07 -2.665073e-07 6.809818e-10 -7.665195e-08 -7.317775e-09
165            -6.528246e-10 8.367834e-07 -2.757064e-07 -1.334436e-09 9.138304e-07 -2.684224e-07 6.816116e-10 -7.704698e-08 -7.284045e-09
166            -6.523137e-10 8.410557e-07 -2.775937e-07 -1.334532e-09 9.184983e-07 -2.703519e-07 6.822180e-10 -7.744264e-08 -7.241786e-09
167            -6.518141e-10 8.453577e-07 -2.795020e-07 -1.334613e-09 9.231965e-07 -2.723120e-07 6.827989e-10 -7.783877e-08 -7.190004e-09
168            -6.513277e-10 8.496805e-07 -2.814311e-07 -1.334681e-09 9.279134e-07 -2.743011e-07 6.833530e-10 -7.823294e-08 -7.130022e-09
169            -6.508525e-10 8.540295e-07 -2.834148e-07 -1.334735e-09 9.326572e-07 -2.763509e-07 6.838823e-10 -7.862774e-08 -7.063894e-09
170            -6.503844e-10 8.584243e-07 -2.854417e-07 -1.334776e-09 9.374487e-07 -2.784491e-07 6.843915e-10 -7.902445e-08 -6.992555e-09
171            -6.499185e-10 8.628863e-07 -2.874908e-07 -1.334804e-09 9.423090e-07 -2.805747e-07 6.848858e-10 -7.942266e-08 -6.916102e-09
172            -6.494579e-10 8.674278e-07 -2.895449e-07 -1.334821e-09 9.472518e-07 -2.827104e-07 6.853634e-10 -7.982406e-08 -6.834555e-09
173            -6.490061e-10 8.720649e-07 -2.915885e-07 -1.334827e-09 9.522921e-07 -2.848392e-07 6.858213e-10 -8.022723e-08 -6.749276e-09
174            -6.485647e-10 8.767941e-07 -2.936168e-07 -1.334823e-09 9.574237e-07 -2.869548e-07 6.862581e-10 -8.062963e-08 -6.661942e-09
175            -6.481312e-10 8.815972e-07 -2.956335e-07 -1.334808e-09 9.626283e-07 -2.890579e-07 6.866770e-10 -8.103107e-08 -6.575670e-09
176            -6.477090e-10 8.864469e-07 -2.976439e-07 -1.334784e-09 9.678781e-07 -2.911512e-07 6.870751e-10 -8.143118e-08 -6.492714e-09
177            -6.472938e-10 8.912985e-07 -2.996601e-07 -1.334752e-09 9.731274e-07 -2.932457e-07 6.874577e-10 -8.182887e-08 -6.414479e-09
178            -6.468843e-10 8.961367e-07 -3.017003e-07 -1.334712e-09 9.783613e-07 -2.953585e-07 6.878276e-10 -8.222466e-08 -6.341849e-09
179            -6.464832e-10 9.009613e-07 -3.037704e-07 -1.334666e-09 9.835807e-07 -2.974978e-07 6.881825e-10 -8.261933e-08 -6.272606e-09
180            -6.460914e-10 9.057894e-07 -3.058487e-07 -1.334613e-09 9.888027e-07 -2.996446e-07 6.885213e-10 -8.301333e-08 -6.204115e-09
181            -6.457050e-10 9.106395e-07 -3.079198e-07 -1.334552e-09 9.940474e-07 -3.017828e-07 6.888473e-10 -8.340796e-08 -6.136982e-09
182            -6.453234e-10 9.155243e-07 -3.099793e-07 -1.334485e-09 9.993276e-07 -3.039085e-07 6.891613e-10 -8.380335e-08 -6.070878e-09
183            -6.449628e-10 9.204497e-07 -3.120442e-07 -1.334410e-09 1.004644e-06 -3.060409e-07 6.894476e-10 -8.419479e-08 -6.003329e-09
184            -6.446169e-10 9.254198e-07 -3.141302e-07 -1.334330e-09 1.009999e-06 -3.081955e-07 6.897130e-10 -8.457895e-08 -5.934687e-09
185            -6.442752e-10 9.304372e-07 -3.162498e-07 -1.334244e-09 1.015395e-06 -3.103851e-07 6.899684e-10 -8.495819e-08 -5.864669e-09
186            -6.439391e-10 9.355048e-07 -3.184076e-07 -1.334152e-09 1.020839e-06 -3.126152e-07 6.902133e-10 -8.533441e-08 -5.792389e-09
187            -6.436038e-10 9.406231e-07 -3.205874e-07 -1.334057e-09 1.026333e-06 -3.148693e-07 6.904535e-10 -8.571033e-08 -5.718067e-09
188            -6.432710e-10 9.457901e-07 -3.227719e-07 -1.333958e-09 1.031877e-06 -3.171297e-07 6.906874e-10 -8.608723e-08 -5.642111e-09
189            -6.429397e-10 9.509927e-07 -3.249658e-07 -1.333856e-09 1.037458e-06 -3.193996e-07 6.909164e-10 -8.646515e-08 -5.566246e-09
190            -6.426103e-10 9.562144e-07 -3.271736e-07 -1.333751e-09 1.043059e-06 -3.216820e-07 6.911406e-10 -8.684491e-08 -5.491660e-09
191            -6.422860e-10 9.614415e-07 -3.293913e-07 -1.333643e-09 1.048667e-06 -3.239731e-07 6.913569e-10 -8.722513e-08 -5.418183e-09
192            -6.419685e-10 9.666656e-07 -3.316105e-07 -1.333532e-09 1.054272e-06 -3.262659e-07 6.915637e-10 -8.760597e-08 -5.344603e-09
193            -6.416651e-10 9.718903e-07 -3.338278e-07 -1.333419e-09 1.059875e-06 -3.285561e-07 6.917540e-10 -8.798479e-08 -5.271622e-09
194            -6.413755e-10 9.771315e-07 -3.360582e-07 -1.333304e-09 1.065488e-06 -3.308557e-07 6.919288e-10 -8.835616e-08 -5.202484e-09
195            -6.410905e-10 9.823865e-07 -3.383094e-07 -1.333188e-09 1.071110e-06 -3.331735e-07 6.920978e-10 -8.872351e-08 -5.135923e-09
196            -6.408115e-10 9.876497e-07 -3.405777e-07 -1.333071e-09 1.076739e-06 -3.355069e-07 6.922599e-10 -8.908899e-08 -5.070790e-09
197            -6.405421e-10 9.929245e-07 -3.428527e-07 -1.332954e-09 1.082377e-06 -3.378470e-07 6.924117e-10 -8.945286e-08 -5.005671e-09
198            -6.402828e-10 9.982112e-07 -3.451324e-07 -1.332835e-09 1.088026e-06 -3.401924e-07 6.925526e-10 -8.981487e-08 -4.940023e-09
199            -6.400376e-10 1.003507e-06 -3.474235e-07 -1.332716e-09 1.093681e-06 -3.425511e-07 6.926787e-10 -9.017386e-08 -4.872447e-09
200            -6.398064e-10 1.008801e-06 -3.497396e-07 -1.332597e-09 1.099330e-06 -3.449377e-07 6.927908e-10 -9.052962e-08 -4.801854e-09
201            -6.395809e-10 1.014086e-06 -3.520883e-07 -1.332478e-09 1.104970e-06 -3.473610e-07 6.928973e-10 -9.088323e-08 -4.727265e-09
202            -6.393579e-10 1.019363e-06 -3.544722e-07 -1.332360e-09 1.110597e-06 -3.498240e-07 6.930017e-10 -9.123419e-08 -4.648224e-09
203            -6.391385e-10 1.024629e-06 -3.568910e-07 -1.332241e-09 1.116213e-06 -3.523259e-07 6.931030e-10 -9.158378e-08 -4.565162e-09
204            -6.389226e-10 1.029888e-06 -3.593415e-07 -1.332124e-09 1.121817e-06 -3.548627e-07 6.932019e-10 -9.192907e-08 -4.478744e-09
205            -6.387120e-10 1.035139e-06 -3.618198e-07 -1.332009e-09 1.127410e-06 -3.574295e-07 6.932970e-10 -9.227067e-08 -4.390305e-09
206            -6.385058e-10 1.040383e-06 -3.643212e-07 -1.331896e-09 1.132992e-06 -3.600208e-07 6.933898e-10 -9.260948e-08 -4.300400e-09
207            -6.383042e-10 1.045620e-06 -3.668410e-07 -1.331784e-09 1.138567e-06 -3.626319e-07 6.934800e-10 -9.294644e-08 -4.209077e-09
208            -6.381151e-10 1.050855e-06 -3.693744e-07 -1.331675e-09 1.144134e-06 -3.652587e-07 6.935603e-10 -9.327946e-08 -4.115696e-09
209            -6.379351e-10 1.056084e-06 -3.719184e-07 -1.331569e-09 1.149695e-06 -3.678977e-07 6.936341e-10 -9.361038e-08 -4.020662e-09
210            -6.377647e-10 1.061309e-06 -3.744722e-07 -1.331466e-09 1.155248e-06 -3.705467e-07 6.937013e-10 -9.393875e-08 -3.925516e-09
211            -6.376021e-10 1.066525e-06 -3.770344e-07 -1.331366e-09 1.160790e-06 -3.732041e-07 6.937638e-10 -9.426497e-08 -3.830299e-09
212            -6.374450e-10 1.071732e-06 -3.796058e-07 -1.331269e-09 1.166320e-06 -3.758694e-07 6.938243e-10 -9.458824e-08 -3.736417e-09
213            -6.372943e-10 1.076927e-06 -3.821864e-07 -1.331176e-09 1.171835e-06 -3.785420e-07 6.938820e-10 -9.490754e-08 -3.644433e-09
214            -6.371457e-10 1.082109e-06 -3.847757e-07 -1.331087e-09 1.177332e-06 -3.812210e-07 6.939411e-10 -9.522285e-08 -3.554701e-09
215            -6.369985e-10 1.087280e-06 -3.873837e-07 -1.331001e-09 1.182813e-06 -3.839157e-07 6.940026e-10 -9.553327e-08 -3.468031e-09
216            -6.368552e-10 1.092437e-06 -3.899940e-07 -1.330919e-09 1.188277e-06 -3.866102e-07 6.940640e-10 -9.583976e-08 -3.383807e-09