# Force       
# CofR        : (0.000000e+00 0.000000e+00 0.000000e+00)
#
# Time        	total_x total_y total_z	pressure_x pressure_y pressure_z	viscous_x viscous_y viscous_z
1              9.561371e-01 2.532976e-02 -8.403697e-03 7.882952e-01 2.527084e-02 -8.400806e-03 1.678419e-01 5.892048e-05 -2.891384e-06
2              1.207033e+00 3.681160e-02 -9.171411e-03 1.038245e+00 3.676284e-02 -9.194230e-03 1.687888e-01 4.876113e-05 2.281893e-05
3              1.149764e+00 3.744395e-02 -7.607386e-03 9.796133e-01 3.741178e-02 -7.649979e-03 1.701504e-01 3.217204e-05 4.259242e-05
4              9.144658e-01 3.118574e-02 -4.843005e-03 7.430447e-01 3.117512e-02 -4.896423e-03 1.714211e-01 1.062025e-05 5.341868e-05
5              6.133383e-01 2.221828e-02 -1.813707e-03 4.408121e-01 2.223521e-02 -1.867831e-03 1.725261e-01 -1.692892e-05 5.412358e-05
6              3.339549e-01 1.349975e-02 6.952855e-04 1.604865e-01 1.354640e-02 6.485266e-04 1.734684e-01 -4.665100e-05 4.675890e-05
7              1.297306e-01 6.569190e-03 2.217446e-03 -4.451355e-02 6.640620e-03 2.182537e-03 1.742442e-01 -7.142991e-05 3.490839e-05
8              2.804206e-02 2.110335e-03 1.529798e-03 -1.467960e-01 2.195097e-03 1.507399e-03 1.748381e-01 -8.476214e-05 2.239886e-05
9              5.620659e-03 -5.734169e-05 4.658196e-04 -1.696125e-01 2.694913e-05 4.535656e-04 1.752332e-01 -8.429081e-05 1.225397e-05
10             3.761914e-02 -4.538379e-04 -2.957772e-04 -1.377835e-01 -3.822664e-04 -3.020332e-04 1.754026e-01 -7.157145e-05 6.256071e-06
11             9.873038e-02 1.476585e-04 -5.557411e-04 -7.660928e-02 1.975938e-04 -5.607275e-04 1.753397e-01 -4.993530e-05 4.986331e-06
12             1.664316e-01 1.059484e-03 -3.258166e-04 -8.632203e-03 1.083075e-03 -3.335858e-04 1.750638e-01 -2.359076e-05 7.769257e-06
13             2.239831e-01 1.901815e-03 2.376789e-04 4.936947e-02 1.898766e-03 2.246427e-04 1.746136e-01 3.048811e-06 1.303616e-05
14             2.622100e-01 2.572171e-03 9.195321e-04 8.817411e-02 2.545654e-03 9.005189e-04 1.740359e-01 2.651700e-05 1.901318e-05
15             2.790050e-01 3.103711e-03 1.554002e-03 1.056291e-01 3.059056e-03 1.529854e-03 1.733759e-01 4.465457e-05 2.414717e-05
16             2.788295e-01 3.568637e-03 1.943752e-03 1.061588e-01 3.511777e-03 1.916253e-03 1.726707e-01 5.686034e-05 2.749932e-05
17             2.682085e-01 4.084253e-03 1.913528e-03 9.625556e-02 4.020389e-03 1.884855e-03 1.719529e-01 6.386386e-05 2.867256e-05
18             2.527854e-01 4.754424e-03 1.452520e-03 8.154072e-02 4.687405e-03 1.424587e-03 1.712447e-01 6.701905e-05 2.793257e-05
19             2.375779e-01 5.568302e-03 6.748110e-04 6.692975e-02 5.500179e-03 6.489839e-04 1.706481e-01 6.812272e-05 2.582705e-05
20             2.257260e-01 6.383011e-03 -2.183495e-04 5.566368e-02 6.314276e-03 -2.414519e-04 1.700623e-01 6.873498e-05 2.310236e-05
21             2.186119e-01 7.013082e-03 -1.020814e-03 4.912885e-02 6.943141e-03 -1.041299e-03 1.694830e-01 6.994101e-05 2.048498e-05
22             2.158418e-01 7.326389e-03 -1.603532e-03 4.701042e-02 7.254184e-03 -1.622092e-03 1.688313e-01 7.220478e-05 1.856054e-05
23             2.163245e-01 7.309946e-03 -1.927349e-03 4.814077e-02 7.234303e-03 -1.944919e-03 1.681837e-01 7.564338e-05 1.756984e-05
24             2.187195e-01 6.954108e-03 -1.949922e-03 5.118329e-02 6.874245e-03 -1.967509e-03 1.675362e-01 7.986382e-05 1.758703e-05
25             2.217249e-01 6.303738e-03 -1.678662e-03 5.483655e-02 6.219347e-03 -1.697039e-03 1.668884e-01 8.439127e-05 1.837738e-05
26             2.243110e-01 5.524126e-03 -1.220034e-03 5.800989e-02 5.435716e-03 -1.239546e-03 1.663011e-01 8.841002e-05 1.951274e-05
27             2.259661e-01 4.737927e-03 -6.805109e-04 6.024904e-02 4.645896e-03 -7.011935e-04 1.657171e-01 9.203127e-05 2.068254e-05
28             2.265751e-01 4.054887e-03 -1.606793e-04 6.143598e-02 3.959834e-03 -1.824491e-04 1.651391e-01 9.505344e-05 2.176987e-05
29             2.262740e-01 3.531669e-03 2.770475e-04 6.170427e-02 3.434232e-03 2.544053e-04 1.645698e-01 9.743725e-05 2.264219e-05
30             2.253129e-01 3.174588e-03 6.083098e-04 6.130075e-02 3.075334e-03 5.850901e-04 1.640121e-01 9.925418e-05 2.321973e-05
31             2.239615e-01 2.984380e-03 8.113538e-04 6.049278e-02 2.883745e-03 7.878722e-04 1.634688e-01 1.006357e-04 2.348159e-05
32             2.224720e-01 2.951633e-03 8.743055e-04 5.953025e-02 2.849905e-03 8.508355e-04 1.629417e-01 1.017279e-04 2.347007e-05
33             2.210382e-01 3.046716e-03 8.073277e-04 5.860730e-02 2.944069e-03 7.840599e-04 1.624309e-01 1.026467e-04 2.326783e-05
34             2.197787e-01 3.225805e-03 6.384977e-04 5.784250e-02 3.122305e-03 6.155265e-04 1.619362e-01 1.035002e-04 2.297125e-05
35             2.187406e-01 3.435400e-03 4.087835e-04 5.728287e-02 3.331064e-03 3.861021e-04 1.614577e-01 1.043360e-04 2.268143e-05
36             2.179172e-01 3.615871e-03 1.709366e-04 5.692261e-02 3.510729e-03 1.484509e-04 1.609946e-01 1.051424e-04 2.248574e-05
37             2.172723e-01 3.725586e-03 -2.803321e-05 5.672579e-02 3.619722e-03 -5.044786e-05 1.605465e-01 1.058641e-04 2.241464e-05
38             2.167538e-01 3.756606e-03 -1.683201e-04 5.664064e-02 3.650161e-03 -1.907855e-04 1.601132e-01 1.064452e-04 2.246540e-05
39             2.163094e-01 3.716339e-03 -2.468095e-04 5.661493e-02 3.609512e-03 -2.694227e-04 1.596945e-01 1.068265e-04 2.261326e-05
40             2.158984e-01 3.618931e-03 -2.685524e-04 5.660817e-02 3.511969e-03 -2.913712e-04 1.592902e-01 1.069621e-04 2.281874e-05
41             2.154949e-01 3.483792e-03 -2.456329e-04 5.659464e-02 3.376942e-03 -2.686774e-04 1.589003e-01 1.068505e-04 2.304450e-05
42             2.150866e-01 3.331453e-03 -1.942935e-04 5.656175e-02 3.224941e-03 -2.175414e-04 1.585249e-01 1.065118e-04 2.324788e-05
43             2.146717e-01 3.180343e-03 -1.309988e-04 5.650785e-02 3.074398e-03 -1.543908e-04 1.581639e-01 1.059445e-04 2.339202e-05
44             2.142564e-01 3.047279e-03 -7.049001e-05 5.643920e-02 2.942087e-03 -9.396165e-05 1.578172e-01 1.051925e-04 2.347163e-05
45             2.138486e-01 2.945103e-03 -2.454056e-05 5.636359e-02 2.840790e-03 -4.802490e-05 1.574850e-01 1.043124e-04 2.348434e-05
46             2.134527e-01 2.878268e-03 2.909016e-07 5.628566e-02 2.774919e-03 -2.314965e-05 1.571671e-01 1.033493e-04 2.344055e-05
47             2.130715e-01 2.843469e-03 3.282459e-06 5.620836e-02 2.741123e-03 -2.007492e-05 1.568631e-01 1.023458e-04 2.335738e-05
48             2.127072e-01 2.833577e-03 -1.212760e-05 5.613422e-02 2.732247e-03 -3.538441e-05 1.565730e-01 1.013305e-04 2.325681e-05
49             2.123612e-01 2.840826e-03 -4.034254e-05 5.606505e-02 2.740519e-03 -6.350205e-05 1.562962e-01 1.003076e-04 2.315950e-05
50             2.120335e-01 2.857668e-03 -7.482804e-05 5.600115e-02 2.758389e-03 -9.790545e-05 1.560324e-01 9.927847e-05 2.307740e-05
51             2.117231e-01 2.876613e-03 -1.090450e-04 5.594191e-02 2.778380e-03 -1.320640e-04 1.557812e-01 9.823247e-05 2.301905e-05
52             2.113840e-01 2.886733e-03 -1.387917e-04 5.585879e-02 2.789595e-03 -1.617781e-04 1.555252e-01 9.713768e-05 2.298643e-05
53             2.110474e-01 2.888115e-03 -1.611340e-04 5.576530e-02 2.792136e-03 -1.841099e-04 1.552821e-01 9.597912e-05 2.297585e-05
54             2.107249e-01 2.883035e-03 -1.752757e-04 5.567318e-02 2.788290e-03 -1.982600e-04 1.550517e-01 9.474539e-05 2.298422e-05
55             2.104241e-01 2.874525e-03 -1.820676e-04 5.559046e-02 2.781094e-03 -2.050706e-04 1.548337e-01 9.343124e-05 2.300303e-05
56             2.101639e-01 2.868694e-03 -1.823029e-04 5.554653e-02 2.776672e-03 -2.053292e-04 1.546174e-01 9.202264e-05 2.302625e-05
57             2.099458e-01 2.865719e-03 -1.788834e-04 5.553143e-02 2.775150e-03 -2.019243e-04 1.544144e-01 9.056809e-05 2.304092e-05
58             2.097588e-01 2.865582e-03 -1.749155e-04 5.553460e-02 2.776504e-03 -1.979572e-04 1.542242e-01 8.907807e-05 2.304169e-05
59             2.095924e-01 2.868195e-03 -1.730466e-04 5.554622e-02 2.780625e-03 -1.960742e-04 1.540461e-01 8.756976e-05 2.302754e-05
60             2.094010e-01 2.871225e-03 -1.760482e-04 5.553198e-02 2.785172e-03 -1.990503e-04 1.538690e-01 8.605374e-05 2.300208e-05
61             2.092000e-01 2.875687e-03 -1.827527e-04 5.549643e-02 2.791149e-03 -2.057193e-04 1.537036e-01 8.453889e-05 2.296663e-05
62             2.089976e-01 2.882081e-03 -1.915836e-04 5.544825e-02 2.799035e-03 -2.145098e-04 1.535494e-01 8.304557e-05 2.292615e-05
63             2.088014e-01 2.890857e-03 -2.017347e-04 5.539558e-02 2.809269e-03 -2.246193e-04 1.534059e-01 8.158824e-05 2.288467e-05
64             2.086170e-01 2.902499e-03 -2.127689e-04 5.534439e-02 2.822316e-03 -2.356150e-04 1.532726e-01 8.018288e-05 2.284611e-05
65             2.084476e-01 2.917159e-03 -2.241363e-04 5.529865e-02 2.838320e-03 -2.469437e-04 1.531489e-01 7.883883e-05 2.280740e-05
66             2.082949e-01 2.934708e-03 -2.352726e-04 5.526051e-02 2.857149e-03 -2.580454e-04 1.530344e-01 7.755872e-05 2.277278e-05
67             2.081590e-01 2.955033e-03 -2.458270e-04 5.523059e-02 2.878685e-03 -2.685665e-04 1.529284e-01 7.634802e-05 2.273955e-05
68             2.080390e-01 2.977972e-03 -2.555468e-04 5.520853e-02 2.902765e-03 -2.782552e-04 1.528304e-01 7.520770e-05 2.270836e-05
69             2.079332e-01 3.002319e-03 -2.638411e-04 5.519323e-02 2.928184e-03 -2.865205e-04 1.527400e-01 7.413543e-05 2.267942e-05
70             2.078393e-01 3.026049e-03 -2.701597e-04 5.518260e-02 2.952921e-03 -2.928107e-04 1.526567e-01 7.312748e-05 2.265105e-05
71             2.077755e-01 3.047188e-03 -2.736957e-04 5.519042e-02 2.975003e-03 -2.963207e-04 1.525851e-01 7.218464e-05 2.262494e-05
72             2.077259e-01 3.066073e-03 -2.755952e-04 5.520666e-02 2.994770e-03 -2.981936e-04 1.525193e-01 7.130372e-05 2.259850e-05
73             2.076823e-01 3.083596e-03 -2.768960e-04 5.522362e-02 3.013117e-03 -2.994668e-04 1.524587e-01 7.047837e-05 2.257086e-05
74             2.076390e-01 3.100479e-03 -2.782689e-04 5.523616e-02 3.030774e-03 -3.008110e-04 1.524029e-01 6.970524e-05 2.254212e-05
75             2.075931e-01 3.117111e-03 -2.800274e-04 5.524153e-02 3.048131e-03 -3.025409e-04 1.523516e-01 6.897977e-05 2.251354e-05
76             2.075434e-01 3.133636e-03 -2.822262e-04 5.523902e-02 3.065338e-03 -3.047118e-04 1.523044e-01 6.829818e-05 2.248561e-05
77             2.074905e-01 3.150076e-03 -2.847651e-04 5.522946e-02 3.082420e-03 -3.072247e-04 1.522611e-01 6.765595e-05 2.245954e-05
78             2.074359e-01 3.166446e-03 -2.874877e-04 5.521455e-02 3.099393e-03 -3.099226e-04 1.522213e-01 6.705292e-05 2.243491e-05
79             2.073812e-01 3.182641e-03 -2.901951e-04 5.519631e-02 3.116152e-03 -3.126071e-04 1.521849e-01 6.648860e-05 2.241209e-05
80             2.073283e-01 3.198165e-03 -2.926111e-04 5.517689e-02 3.132202e-03 -3.150019e-04 1.521514e-01 6.596256e-05 2.239087e-05
81             2.072791e-01 3.212318e-03 -2.944520e-04 5.515828e-02 3.146846e-03 -3.168235e-04 1.521208e-01 6.547263e-05 2.237154e-05
82             2.072344e-01 3.224736e-03 -2.955873e-04 5.514171e-02 3.159719e-03 -3.179411e-04 1.520927e-01 6.501694e-05 2.235381e-05
83             2.071946e-01 3.235567e-03 -2.960800e-04 5.512749e-02 3.170972e-03 -3.184183e-04 1.520671e-01 6.459493e-05 2.233831e-05
84             2.071473e-01 3.245964e-03 -2.966577e-04 5.510585e-02 3.181757e-03 -3.189807e-04 1.520415e-01 6.420668e-05 2.232299e-05
85             2.070987e-01 3.255930e-03 -2.972242e-04 5.508049e-02 3.192083e-03 -3.195336e-04 1.520182e-01 6.384650e-05 2.230942e-05
86             2.070616e-01 3.264761e-03 -2.971465e-04 5.506277e-02 3.201246e-03 -3.194442e-04 1.519988e-01 6.351492e-05 2.229760e-05
87             2.070325e-01 3.272652e-03 -2.965750e-04 5.505131e-02 3.209434e-03 -3.188609e-04 1.519812e-01 6.321744e-05 2.228593e-05
88             2.070093e-01 3.279741e-03 -2.956729e-04 5.504423e-02 3.216788e-03 -3.179465e-04 1.519651e-01 6.295264e-05 2.227355e-05
89             2.069901e-01 3.286134e-03 -2.945886e-04 5.503961e-02 3.223415e-03 -3.168490e-04 1.519505e-01 6.271927e-05 2.226038e-05
90             2.069730e-01 3.291908e-03 -2.934320e-04 5.503586e-02 3.229393e-03 -3.156786e-04 1.519371e-01 6.251564e-05 2.224662e-05
91             2.069569e-01 3.297082e-03 -2.922577e-04 5.503185e-02 3.234742e-03 -3.144901e-04 1.519250e-01 6.233965e-05 2.223237e-05
92             2.069410e-01 3.301604e-03 -2.910694e-04 5.502700e-02 3.239415e-03 -3.132872e-04 1.519140e-01 6.218911e-05 2.221781e-05
93             2.069251e-01 3.305428e-03 -2.898502e-04 5.502112e-02 3.243367e-03 -3.120533e-04 1.519040e-01 6.206159e-05 2.220312e-05
94             2.069093e-01 3.308598e-03 -2.885945e-04 5.501436e-02 3.246643e-03 -3.107826e-04 1.518949e-01 6.195475e-05 2.218816e-05
95             2.068937e-01 3.311252e-03 -2.873110e-04 5.500700e-02 3.249385e-03 -3.094845e-04 1.518867e-01 6.186632e-05 2.217346e-05
96             2.068785e-01 3.313555e-03 -2.860126e-04 5.499932e-02 3.251761e-03 -3.081718e-04 1.518792e-01 6.179465e-05 2.215919e-05
97             2.068640e-01 3.315643e-03 -2.847098e-04 5.499155e-02 3.253905e-03 -3.068551e-04 1.518724e-01 6.173806e-05 2.214530e-05
98             2.068502e-01 3.317593e-03 -2.834122e-04 5.498389e-02 3.255898e-03 -3.055442e-04 1.518663e-01 6.169491e-05 2.213200e-05
99             2.068372e-01 3.319444e-03 -2.821308e-04 5.497646e-02 3.257780e-03 -3.042499e-04 1.518608e-01 6.166408e-05 2.211907e-05
100            2.068251e-01 3.321209e-03 -2.808772e-04 5.496933e-02 3.259565e-03 -3.029838e-04 1.518558e-01 6.164406e-05 2.210651e-05
101            2.068138e-01 3.322894e-03 -2.796619e-04 5.496253e-02 3.261261e-03 -3.017562e-04 1.518513e-01 6.163338e-05 2.209432e-05
102            2.068033e-01 3.324498e-03 -2.784926e-04 5.495608e-02 3.262868e-03 -3.005751e-04 1.518472e-01 6.163051e-05 2.208252e-05
103            2.067935e-01 3.326014e-03 -2.773750e-04 5.494999e-02 3.264380e-03 -2.994461e-04 1.518435e-01 6.163394e-05 2.207116e-05
104            2.067845e-01 3.327429e-03 -2.763134e-04 5.494429e-02 3.265787e-03 -2.983736e-04 1.518402e-01 6.164218e-05 2.206023e-05
105            2.067762e-01 3.328735e-03 -2.753106e-04 5.493900e-02 3.267081e-03 -2.973603e-04 1.518372e-01 6.165380e-05 2.204976e-05
106            2.067687e-01 3.329933e-03 -2.743665e-04 5.493412e-02 3.268265e-03 -2.964064e-04 1.518346e-01 6.166766e-05 2.203991e-05
107            2.067618e-01 3.331036e-03 -2.734788e-04 5.492961e-02 3.269354e-03 -2.955093e-04 1.518322e-01 6.168256e-05 2.203055e-05
108            2.067554e-01 3.332063e-03 -2.726438e-04 5.492541e-02 3.270365e-03 -2.946654e-04 1.518300e-01 6.169759e-05 2.202167e-05
109            2.067496e-01 3.333029e-03 -2.718578e-04 5.492147e-02 3.271317e-03 -2.938711e-04 1.518281e-01 6.171209e-05 2.201327e-05
110            2.067441e-01 3.333948e-03 -2.711187e-04 5.491774e-02 3.272222e-03 -2.931240e-04 1.518264e-01 6.172571e-05 2.200527e-05
111            2.067391e-01 3.334826e-03 -2.704252e-04 5.491422e-02 3.273088e-03 -2.924230e-04 1.518248e-01 6.173805e-05 2.199780e-05
112            2.067344e-01 3.335666e-03 -2.697771e-04 5.491091e-02 3.273917e-03 -2.917679e-04 1.518235e-01 6.174906e-05 2.199076e-05
113            2.067301e-01 3.336473e-03 -2.691730e-04 5.490781e-02 3.274715e-03 -2.911573e-04 1.518223e-01 6.175839e-05 2.198426e-05
114            2.067262e-01 3.337252e-03 -2.686118e-04 5.490495e-02 3.275486e-03 -2.905901e-04 1.518212e-01 6.176602e-05 2.197826e-05
115            2.067226e-01 3.338006e-03 -2.680924e-04 5.490235e-02 3.276234e-03 -2.900652e-04 1.518203e-01 6.177206e-05 2.197274e-05
116            2.067195e-01 3.338735e-03 -2.676174e-04 5.490003e-02 3.276958e-03 -2.895851e-04 1.518194e-01 6.177667e-05 2.196768e-05
117            2.067167e-01 3.339434e-03 -2.671909e-04 5.489805e-02 3.277654e-03 -2.891540e-04 1.518187e-01 6.178006e-05 2.196308e-05
118            2.067144e-01 3.340101e-03 -2.668160e-04 5.489639e-02 3.278318e-03 -2.887749e-04 1.518180e-01 6.178246e-05 2.195889e-05
119            2.067124e-01 3.340736e-03 -2.664896e-04 5.489502e-02 3.278952e-03 -2.884447e-04 1.518174e-01 6.178410e-05 2.195511e-05
120            2.067107e-01 3.341350e-03 -2.662048e-04 5.489389e-02 3.279565e-03 -2.881565e-04 1.518168e-01 6.178521e-05 2.195172e-05
121            2.067093e-01 3.341952e-03 -2.659530e-04 5.489293e-02 3.280166e-03 -2.879017e-04 1.518163e-01 6.178601e-05 2.194868e-05
122            2.067080e-01 3.342553e-03 -2.657264e-04 5.489211e-02 3.280766e-03 -2.876724e-04 1.518159e-01 6.178671e-05 2.194601e-05
123            2.067069e-01 3.343156e-03 -2.655204e-04 5.489140e-02 3.281369e-03 -2.874640e-04 1.518155e-01 6.178750e-05 2.194365e-05
124            2.067059e-01 3.343763e-03 -2.653325e-04 5.489078e-02 3.281975e-03 -2.872741e-04 1.518151e-01 6.178855e-05 2.194159e-05
125            2.067050e-01 3.344374e-03 -2.651614e-04 5.489025e-02 3.282584e-03 -2.871012e-04 1.518148e-01 6.178996e-05 2.193980e-05
126            2.067043e-01 3.344987e-03 -2.650061e-04 5.488980e-02 3.283195e-03 -2.869443e-04 1.518145e-01 6.179185e-05 2.193827e-05
127            2.067037e-01 3.345600e-03 -2.648678e-04 5.488943e-02 3.283806e-03 -2.868048e-04 1.518142e-01 6.179429e-05 2.193697e-05
128            2.067031e-01 3.346201e-03 -2.647494e-04 5.488916e-02 3.284404e-03 -2.866852e-04 1.518140e-01 6.179731e-05 2.193586e-05
129            2.067027e-01 3.346777e-03 -2.646518e-04 5.488898e-02 3.284976e-03 -2.865867e-04 1.518138e-01 6.180088e-05 2.193492e-05
130            2.067024e-01 3.347317e-03 -2.645725e-04 5.488888e-02 3.285512e-03 -2.865067e-04 1.518136e-01 6.180495e-05 2.193413e-05
131            2.067022e-01 3.347822e-03 -2.645070e-04 5.488883e-02 3.286012e-03 -2.864405e-04 1.518134e-01 6.180946e-05 2.193348e-05
132            2.067020e-01 3.348298e-03 -2.644511e-04 5.488883e-02 3.286484e-03 -2.863840e-04 1.518132e-01 6.181436e-05 2.193295e-05
133            2.067019e-01 3.348754e-03 -2.644035e-04 5.488884e-02 3.286934e-03 -2.863360e-04 1.518130e-01 6.181958e-05 2.193251e-05
134            2.067017e-01 3.349195e-03 -2.643637e-04 5.488887e-02 3.287370e-03 -2.862958e-04 1.518129e-01 6.182508e-05 2.193215e-05
