/*--------------------------------*- C++ -*----------------------------------*\
| =========                 |                                                 |
| \\      /  F ield         | OpenFOAM: The Open Source CFD Toolbox           |
|  \\    /   O peration     | Version:  2512                                  |
|   \\  /    A nd           | Website:  www.openfoam.com                      |
|    \\/     M anipulation  |                                                 |
\*---------------------------------------------------------------------------*/
FoamFile
{
    version     2.0;
    format      ascii;
    arch        "LSB;label=32;scalar=64";
    class       volScalarField;
    location    "222";
    object      omega;
}
// * * * * * * * * * * * * * * * * * * * * * * * * * * * * * * * * * * * * * //

dimensions      [0 0 -1 0 0 0 0];

internalField   nonuniform List<scalar> 
335663
(
8.07067
6.69608
5.69886
4.94659
4.36123
3.89415
3.51363
3.19818
2.93278
2.70663
2.51179
2.34231
2.19362
2.06218
1.94521
1.84047
1.74618
1.66087
1.58332
1.51255
1.44771
1.3881
1.33311
1.28224
1.23505
1.19115
1.15022
1.11196
1.07613
1.0425
1.01088
0.981089
0.952983
0.92642
0.901278
0.877446
0.854824
0.833325
0.812867
0.793376
0.774787
0.757038
0.740075
0.723846
0.708306
0.693412
0.679124
0.665407
0.652228
0.639555
0.62736
0.615617
0.604302
0.593391
0.582863
0.5727
0.562881
0.55339
0.544212
0.53533
0.526732
0.518402
0.51033
0.502504
0.494912
0.487544
0.480391
0.473443
0.466692
0.460129
0.453747
0.447538
0.441496
0.435614
0.429885
0.424304
0.418865
0.413563
0.408393
0.403425
8.07067
6.69608
5.69886
4.94659
4.36123
3.89415
3.51363
3.19818
2.93278
2.70663
2.51179
2.34231
2.19362
2.06218
1.94521
1.84047
1.74618
1.66087
1.58332
1.51255
1.44771
1.3881
1.33311
1.28224
1.23505
1.19115
1.15022
1.11196
1.07613
1.0425
1.01088
0.98109
0.952984
0.926422
0.901279
0.877447
0.854826
0.833327
0.812868
0.793378
0.774788
0.75704
0.740076
0.723848
0.708307
0.693413
0.679125
0.665408
0.652229
0.639556
0.627361
0.615618
0.604303
0.593392
0.582864
0.5727
0.562882
0.553391
0.544213
0.535331
0.526732
0.518403
0.510331
0.502505
0.494913
0.487545
0.480392
0.473444
0.466693
0.46013
0.453748
0.447539
0.441497
0.435614
0.429885
0.424304
0.418865
0.413563
0.408394
0.403425
8.07067
6.69608
5.69886
4.94659
4.36123
3.89415
3.51363
3.19818
2.93277
2.70663
2.51179
2.34231
2.19362
2.06218
1.94521
1.84047
1.74618
1.66086
1.58332
1.51255
1.44771
1.3881
1.33311
1.28224
1.23505
1.19115
1.15022
1.11196
1.07613
1.0425
1.01088
0.981092
0.952987
0.926424
0.901282
0.87745
0.854829
0.833329
0.812871
0.79338
0.774791
0.757042
0.740078
0.72385
0.708309
0.693415
0.679127
0.66541
0.652231
0.639558
0.627363
0.61562
0.604304
0.593393
0.582866
0.572702
0.562883
0.553393
0.544214
0.535332
0.526734
0.518404
0.510332
0.502506
0.494914
0.487546
0.480393
0.473445
0.466694
0.460131
0.453749
0.44754
0.441498
0.435615
0.429886
0.424305
0.418866
0.413564
0.408394
0.403426
8.07067
6.69608
5.69886
4.94659
4.36123
3.89415
3.51363
3.19818
2.93277
2.70663
2.51179
2.34231
2.19362
2.06218
1.94521
1.84047
1.74618
1.66086
1.58332
1.51255
1.44771
1.3881
1.33311
1.28224
1.23505
1.19115
1.15022
1.11196
1.07613
1.0425
1.01088
0.981094
0.952989
0.926427
0.901285
0.877453
0.854832
0.833332
0.812874
0.793383
0.774794
0.757045
0.740081
0.723852
0.708312
0.693418
0.67913
0.665413
0.652233
0.63956
0.627365
0.615622
0.604306
0.593395
0.582868
0.572704
0.562885
0.553394
0.544216
0.535334
0.526735
0.518406
0.510334
0.502507
0.494915
0.487548
0.480394
0.473446
0.466695
0.460132
0.45375
0.447541
0.441499
0.435616
0.429887
0.424306
0.418867
0.413565
0.408395
0.403427
8.07067
6.69608
5.69886
4.94659
4.36123
3.89415
3.51363
3.19818
2.93277
2.70663
2.51179
2.34231
2.19362
2.06218
1.9452
1.84047
1.74618
1.66086
1.58332
1.51254
1.44771
1.38809
1.33311
1.28224
1.23505
1.19115
1.15022
1.11196
1.07613
1.0425
1.01088
0.981097
0.952992
0.92643
0.901288
0.877456
0.854835
0.833336
0.812877
0.793387
0.774797
0.757048
0.740084
0.723855
0.708315
0.69342
0.679132
0.665415
0.652235
0.639562
0.627367
0.615624
0.604309
0.593398
0.58287
0.572706
0.562887
0.553396
0.544218
0.535336
0.526737
0.518408
0.510335
0.502509
0.494917
0.487549
0.480396
0.473448
0.466696
0.460134
0.453751
0.447543
0.4415
0.435618
0.429889
0.424307
0.418868
0.413566
0.408396
0.403428
8.07067
6.69608
5.69886
4.94659
4.36123
3.89415
3.51363
3.19817
2.93277
2.70662
2.51179
2.34231
2.19362
2.06218
1.9452
1.84047
1.74617
1.66086
1.58331
1.51254
1.4477
1.38809
1.33311
1.28224
1.23505
1.19115
1.15022
1.11196
1.07613
1.0425
1.01088
0.9811
0.952996
0.926434
0.901292
0.87746
0.854839
0.83334
0.812881
0.79339
0.774801
0.757052
0.740088
0.723859
0.708318
0.693423
0.679135
0.665418
0.652238
0.639565
0.62737
0.615627
0.604311
0.5934
0.582872
0.572708
0.562889
0.553398
0.54422
0.535338
0.526739
0.51841
0.510337
0.502511
0.494919
0.487551
0.480398
0.47345
0.466698
0.460135
0.453753
0.447544
0.441502
0.435619
0.42989
0.424309
0.41887
0.413567
0.408398
0.403429
8.07067
6.69608
5.69886
4.94659
4.36123
3.89415
3.51362
3.19817
2.93277
2.70662
2.51179
2.3423
2.19361
2.06217
1.9452
1.84046
1.74617
1.66085
1.58331
1.51254
1.4477
1.38809
1.33311
1.28224
1.23504
1.19115
1.15022
1.11196
1.07613
1.04251
1.01089
0.981103
0.952999
0.926438
0.901296
0.877465
0.854844
0.833344
0.812886
0.793395
0.774805
0.757056
0.740092
0.723863
0.708322
0.693427
0.679139
0.665421
0.652241
0.639568
0.627373
0.61563
0.604314
0.593403
0.582875
0.572711
0.562892
0.553401
0.544222
0.53534
0.526741
0.518412
0.510339
0.502513
0.494921
0.487553
0.480399
0.473451
0.4667
0.460137
0.453755
0.447546
0.441503
0.435621
0.429892
0.42431
0.418871
0.413569
0.408399
0.403431
8.07067
6.69608
5.69886
4.94659
4.36123
3.89415
3.51362
3.19817
2.93277
2.70662
2.51179
2.3423
2.19361
2.06217
1.9452
1.84046
1.74617
1.66085
1.58331
1.51253
1.4477
1.38808
1.3331
1.28223
1.23504
1.19115
1.15021
1.11196
1.07613
1.04251
1.01089
0.981107
0.953003
0.926442
0.901301
0.877469
0.854848
0.833349
0.81289
0.793399
0.774809
0.75706
0.740096
0.723866
0.708326
0.693431
0.679142
0.665425
0.652245
0.639571
0.627376
0.615633
0.604317
0.593405
0.582878
0.572713
0.562894
0.553403
0.544224
0.535343
0.526743
0.518414
0.510342
0.502515
0.494923
0.487555
0.480401
0.473453
0.466702
0.460139
0.453757
0.447548
0.441505
0.435622
0.429893
0.424312
0.418873
0.41357
0.408401
0.403432
8.07067
6.69608
5.69886
4.94659
4.36123
3.89415
3.51362
3.19817
2.93277
2.70662
2.51178
2.3423
2.19361
2.06217
1.94519
1.84046
1.74616
1.66085
1.5833
1.51253
1.44769
1.38808
1.3331
1.28223
1.23504
1.19114
1.15021
1.11196
1.07613
1.04251
1.01089
0.981111
0.953008
0.926447
0.901306
0.877474
0.854854
0.833354
0.812895
0.793404
0.774814
0.757064
0.7401
0.723871
0.70833
0.693434
0.679146
0.665428
0.652248
0.639575
0.627379
0.615636
0.60432
0.593408
0.58288
0.572716
0.562897
0.553406
0.544227
0.535345
0.526746
0.518416
0.510344
0.502517
0.494925
0.487557
0.480404
0.473455
0.466704
0.460141
0.453758
0.447549
0.441507
0.435624
0.429895
0.424314
0.418875
0.413572
0.408403
0.403434
8.07067
6.69608
5.69886
4.94659
4.36123
3.89415
3.51362
3.19817
2.93277
2.70662
2.51178
2.3423
2.1936
2.06217
1.94519
1.84045
1.74616
1.66084
1.5833
1.51252
1.44769
1.38808
1.33309
1.28223
1.23504
1.19114
1.15021
1.11196
1.07614
1.04251
1.0109
0.981114
0.953012
0.926452
0.901311
0.87748
0.854859
0.833359
0.812901
0.793409
0.774819
0.757069
0.740105
0.723875
0.708334
0.693439
0.67915
0.665432
0.652252
0.639578
0.627383
0.615639
0.604323
0.593412
0.582883
0.572719
0.5629
0.553409
0.54423
0.535348
0.526748
0.518419
0.510346
0.50252
0.494927
0.487559
0.480406
0.473458
0.466706
0.460143
0.45376
0.447551
0.441509
0.435626
0.429897
0.424316
0.418876
0.413574
0.408404
0.403436
8.07067
6.69608
5.69886
4.94659
4.36123
3.89415
3.51362
3.19817
2.93276
2.70662
2.51178
2.34229
2.1936
2.06216
1.94519
1.84045
1.74615
1.66084
1.58329
1.51252
1.44768
1.38807
1.33309
1.28222
1.23503
1.19114
1.15021
1.11196
1.07614
1.04251
1.0109
0.981119
0.953017
0.926457
0.901317
0.877485
0.854864
0.833365
0.812906
0.793414
0.774824
0.757074
0.740109
0.723879
0.708338
0.693443
0.679154
0.665436
0.652255
0.639582
0.627386
0.615643
0.604326
0.593415
0.582886
0.572722
0.562903
0.553412
0.544232
0.53535
0.526751
0.518421
0.510349
0.502522
0.49493
0.487562
0.480408
0.47346
0.466708
0.460145
0.453763
0.447553
0.441511
0.435628
0.429899
0.424318
0.418878
0.413576
0.408406
0.403437
8.07067
6.69608
5.69885
4.94659
4.36123
3.89415
3.51362
3.19817
2.93276
2.70661
2.51178
2.34229
2.1936
2.06216
1.94518
1.84044
1.74615
1.66083
1.58329
1.51251
1.44768
1.38807
1.33308
1.28222
1.23503
1.19114
1.15021
1.11196
1.07614
1.04252
1.0109
0.981123
0.953021
0.926462
0.901322
0.877491
0.85487
0.83337
0.812911
0.793419
0.774829
0.757079
0.740114
0.723884
0.708342
0.693447
0.679158
0.66544
0.652259
0.639585
0.62739
0.615646
0.604329
0.593418
0.582889
0.572725
0.562906
0.553414
0.544235
0.535353
0.526754
0.518424
0.510351
0.502524
0.494932
0.487564
0.48041
0.473462
0.46671
0.460147
0.453765
0.447555
0.441513
0.43563
0.429901
0.424319
0.41888
0.413577
0.408408
0.403439
8.07067
6.69608
5.69885
4.94659
4.36123
3.89414
3.51362
3.19817
2.93276
2.70661
2.51178
2.34229
2.1936
2.06215
1.94518
1.84044
1.74614
1.66083
1.58328
1.51251
1.44767
1.38806
1.33308
1.28222
1.23503
1.19113
1.15021
1.11196
1.07614
1.04252
1.01091
0.981126
0.953026
0.926467
0.901327
0.877496
0.854875
0.833376
0.812916
0.793424
0.774834
0.757083
0.740118
0.723888
0.708346
0.693451
0.679162
0.665443
0.652263
0.639589
0.627393
0.615649
0.604333
0.593421
0.582892
0.572728
0.562908
0.553417
0.544238
0.535355
0.526756
0.518426
0.510354
0.502527
0.494934
0.487566
0.480412
0.473464
0.466712
0.460149
0.453767
0.447557
0.441515
0.435632
0.429903
0.424321
0.418882
0.413579
0.408409
0.403441
8.07067
6.69608
5.69885
4.94658
4.36123
3.89414
3.51362
3.19816
2.93276
2.70661
2.51177
2.34229
2.19359
2.06215
1.94517
1.84044
1.74614
1.66082
1.58328
1.5125
1.44767
1.38806
1.33308
1.28221
1.23502
1.19113
1.15021
1.11196
1.07614
1.04252
1.01091
0.98113
0.95303
0.926472
0.901332
0.877501
0.85488
0.833381
0.812921
0.793429
0.774838
0.757088
0.740123
0.723892
0.70835
0.693454
0.679165
0.665447
0.652266
0.639592
0.627396
0.615652
0.604335
0.593424
0.582895
0.57273
0.562911
0.55342
0.54424
0.535358
0.526758
0.518429
0.510356
0.502529
0.494936
0.487568
0.480414
0.473466
0.466714
0.460151
0.453768
0.447559
0.441516
0.435634
0.429904
0.424323
0.418883
0.413581
0.408411
0.403442
8.07067
6.69608
5.69885
4.94658
4.36123
3.89414
3.51362
3.19816
2.93276
2.70661
2.51177
2.34228
2.19359
2.06215
1.94517
1.84043
1.74614
1.66082
1.58327
1.5125
1.44766
1.38805
1.33307
1.28221
1.23502
1.19113
1.15021
1.11196
1.07614
1.04252
1.01091
0.981134
0.953034
0.926476
0.901337
0.877506
0.854885
0.833385
0.812926
0.793434
0.774842
0.757092
0.740126
0.723896
0.708354
0.693458
0.679168
0.66545
0.652269
0.639595
0.627399
0.615655
0.604338
0.593426
0.582898
0.572733
0.562913
0.553422
0.544242
0.53536
0.526761
0.518431
0.510358
0.502531
0.494938
0.48757
0.480416
0.473468
0.466716
0.460153
0.45377
0.447561
0.441518
0.435635
0.429906
0.424324
0.418885
0.413582
0.408413
0.403444
8.07067
6.69608
5.69885
4.94658
4.36123
3.89414
3.51362
3.19816
2.93276
2.70661
2.51177
2.34228
2.19359
2.06215
1.94517
1.84043
1.74613
1.66081
1.58327
1.5125
1.44766
1.38805
1.33307
1.2822
1.23502
1.19113
1.1502
1.11196
1.07614
1.04252
1.01091
0.981136
0.953038
0.92648
0.901341
0.87751
0.854889
0.833389
0.81293
0.793437
0.774846
0.757095
0.74013
0.723899
0.708357
0.693461
0.679171
0.665453
0.652272
0.639597
0.627401
0.615657
0.60434
0.593428
0.5829
0.572735
0.562915
0.553424
0.544244
0.535362
0.526762
0.518432
0.51036
0.502533
0.49494
0.487572
0.480418
0.473469
0.466718
0.460154
0.453772
0.447562
0.44152
0.435637
0.429907
0.424326
0.418886
0.413584
0.408414
0.403445
8.07067
6.69608
5.69885
4.94658
4.36122
3.89414
3.51362
3.19816
2.93276
2.70661
2.51177
2.34228
2.19359
2.06214
1.94517
1.84043
1.74613
1.66081
1.58326
1.51249
1.44765
1.38804
1.33306
1.2822
1.23501
1.19113
1.1502
1.11196
1.07614
1.04252
1.01092
0.981139
0.95304
0.926483
0.901344
0.877513
0.854892
0.833392
0.812933
0.79344
0.774849
0.757098
0.740132
0.723902
0.708359
0.693463
0.679174
0.665455
0.652274
0.639599
0.627403
0.615659
0.604342
0.59343
0.582901
0.572737
0.562917
0.553425
0.544246
0.535363
0.526764
0.518434
0.510361
0.502534
0.494941
0.487573
0.480419
0.473471
0.466719
0.460155
0.453773
0.447564
0.441521
0.435638
0.429908
0.424327
0.418887
0.413585
0.408415
0.403446
8.07067
6.69608
5.69885
4.94658
4.36122
3.89414
3.51362
3.19816
2.93276
2.7066
2.51177
2.34228
2.19358
2.06214
1.94516
1.84042
1.74613
1.66081
1.58326
1.51249
1.44765
1.38804
1.33306
1.2822
1.23501
1.19112
1.1502
1.11196
1.07614
1.04253
1.01092
0.98114
0.953042
0.926485
0.901346
0.877516
0.854895
0.833395
0.812935
0.793442
0.774851
0.7571
0.740134
0.723903
0.708361
0.693465
0.679175
0.665456
0.652275
0.639601
0.627405
0.61566
0.604344
0.593431
0.582903
0.572738
0.562918
0.553427
0.544247
0.535365
0.526765
0.518435
0.510362
0.502535
0.494942
0.487574
0.48042
0.473472
0.46672
0.460156
0.453774
0.447564
0.441522
0.435639
0.429909
0.424328
0.418888
0.413585
0.408416
0.403447
8.07067
6.69608
5.69885
4.94658
4.36122
3.89414
3.51361
3.19816
2.93276
2.7066
2.51177
2.34228
2.19358
2.06214
1.94516
1.84042
1.74612
1.66081
1.58326
1.51249
1.44765
1.38804
1.33306
1.2822
1.23501
1.19112
1.1502
1.11196
1.07614
1.04253
1.01092
0.981141
0.953044
0.926486
0.901347
0.877517
0.854896
0.833396
0.812936
0.793444
0.774852
0.757101
0.740135
0.723904
0.708362
0.693466
0.679176
0.665457
0.652276
0.639602
0.627405
0.615661
0.604344
0.593432
0.582903
0.572738
0.562919
0.553427
0.544248
0.535365
0.526766
0.518436
0.510363
0.502536
0.494943
0.487575
0.480421
0.473472
0.46672
0.460157
0.453774
0.447565
0.441522
0.435639
0.42991
0.424328
0.418889
0.413586
0.408416
0.403447
8.07067
6.69608
5.69885
4.94658
4.36122
3.89414
3.51361
3.19816
2.93276
2.7066
2.51177
2.34228
2.19358
2.06214
1.94516
1.84042
1.74612
1.6608
1.58326
1.51249
1.44765
1.38804
1.33306
1.2822
1.23501
1.19112
1.1502
1.11196
1.07614
1.04253
1.01092
0.981141
0.953044
0.926487
0.901348
0.877517
0.854896
0.833396
0.812937
0.793444
0.774852
0.757101
0.740136
0.723905
0.708362
0.693466
0.679176
0.665457
0.652276
0.639602
0.627406
0.615661
0.604345
0.593432
0.582904
0.572739
0.562919
0.553427
0.544248
0.535365
0.526766
0.518436
0.510363
0.502536
0.494943
0.487575
0.480421
0.473472
0.46672
0.460157
0.453774
0.447565
0.441522
0.435639
0.42991
0.424328
0.418889
0.413586
0.408416
0.403447
8.07067
6.69608
5.69885
4.94658
4.36122
3.89414
3.51361
3.19816
2.93276
2.7066
2.51177
2.34228
2.19358
2.06214
1.94516
1.84042
1.74612
1.6608
1.58326
1.51249
1.44765
1.38804
1.33306
1.28219
1.23501
1.19112
1.1502
1.11196
1.07614
1.04252
1.01092
0.981141
0.953043
0.926486
0.901347
0.877516
0.854896
0.833396
0.812936
0.793443
0.774852
0.757101
0.740135
0.723904
0.708362
0.693465
0.679176
0.665457
0.652276
0.639601
0.627405
0.615661
0.604344
0.593432
0.582903
0.572738
0.562919
0.553427
0.544248
0.535365
0.526765
0.518435
0.510363
0.502536
0.494943
0.487575
0.480421
0.473472
0.46672
0.460157
0.453774
0.447565
0.441522
0.435639
0.42991
0.424328
0.418889
0.413586
0.408416
0.403447
8.07067
6.69608
5.69885
4.94658
4.36122
3.89414
3.51361
3.19816
2.93276
2.7066
2.51177
2.34228
2.19358
2.06214
1.94516
1.84042
1.74612
1.66081
1.58326
1.51249
1.44765
1.38804
1.33306
1.2822
1.23501
1.19112
1.1502
1.11196
1.07614
1.04252
1.01092
0.98114
0.953042
0.926485
0.901346
0.877515
0.854894
0.833394
0.812935
0.793442
0.774851
0.7571
0.740134
0.723903
0.708361
0.693464
0.679175
0.665456
0.652275
0.639601
0.627404
0.61566
0.604343
0.593431
0.582903
0.572738
0.562918
0.553427
0.544247
0.535365
0.526765
0.518435
0.510362
0.502535
0.494942
0.487574
0.48042
0.473472
0.46672
0.460156
0.453774
0.447564
0.441522
0.435639
0.429909
0.424328
0.418888
0.413586
0.408416
0.403447
8.07067
6.69608
5.69885
4.94658
4.36122
3.89414
3.51362
3.19816
2.93276
2.7066
2.51177
2.34228
2.19358
2.06214
1.94516
1.84042
1.74613
1.66081
1.58326
1.51249
1.44765
1.38804
1.33306
1.2822
1.23501
1.19112
1.1502
1.11196
1.07614
1.04252
1.01091
0.981138
0.95304
0.926483
0.901344
0.877513
0.854892
0.833392
0.812933
0.79344
0.774849
0.757098
0.740132
0.723902
0.708359
0.693463
0.679173
0.665455
0.652274
0.639599
0.627403
0.615659
0.604342
0.59343
0.582902
0.572737
0.562917
0.553425
0.544246
0.535364
0.526764
0.518434
0.510361
0.502534
0.494942
0.487573
0.480419
0.473471
0.466719
0.460156
0.453773
0.447564
0.441521
0.435638
0.429909
0.424327
0.418888
0.413585
0.408415
0.403446
8.07067
6.69608
5.69885
4.94658
4.36122
3.89414
3.51362
3.19816
2.93276
2.70661
2.51177
2.34228
2.19359
2.06214
1.94516
1.84042
1.74613
1.66081
1.58326
1.51249
1.44765
1.38804
1.33306
1.2822
1.23501
1.19112
1.1502
1.11196
1.07614
1.04252
1.01091
0.981136
0.953037
0.92648
0.901341
0.87751
0.854889
0.83339
0.81293
0.793438
0.774846
0.757095
0.74013
0.723899
0.708357
0.693461
0.679171
0.665453
0.652272
0.639597
0.627401
0.615657
0.604341
0.593429
0.5829
0.572735
0.562916
0.553424
0.544245
0.535362
0.526763
0.518433
0.51036
0.502533
0.49494
0.487572
0.480418
0.47347
0.466718
0.460155
0.453772
0.447563
0.44152
0.435637
0.429908
0.424326
0.418887
0.413584
0.408414
0.403445
8.07067
6.69608
5.69885
4.94658
4.36123
3.89414
3.51362
3.19816
2.93276
2.70661
2.51177
2.34228
2.19359
2.06215
1.94517
1.84043
1.74613
1.66081
1.58327
1.51249
1.44766
1.38805
1.33307
1.2822
1.23502
1.19113
1.1502
1.11196
1.07614
1.04252
1.01091
0.981133
0.953034
0.926476
0.901337
0.877506
0.854886
0.833386
0.812926
0.793434
0.774843
0.757092
0.740127
0.723896
0.708354
0.693458
0.679169
0.66545
0.652269
0.639595
0.627399
0.615655
0.604339
0.593427
0.582898
0.572733
0.562914
0.553422
0.544243
0.53536
0.526761
0.518431
0.510358
0.502531
0.494939
0.487571
0.480417
0.473468
0.466717
0.460153
0.453771
0.447561
0.441519
0.435636
0.429906
0.424325
0.418885
0.413583
0.408413
0.403444
8.07067
6.69608
5.69885
4.94658
4.36123
3.89414
3.51362
3.19816
2.93276
2.70661
2.51177
2.34228
2.19359
2.06215
1.94517
1.84043
1.74613
1.66082
1.58327
1.5125
1.44766
1.38805
1.33307
1.2822
1.23502
1.19113
1.1502
1.11196
1.07614
1.04252
1.01091
0.98113
0.95303
0.926472
0.901333
0.877502
0.854881
0.833381
0.812922
0.79343
0.774839
0.757088
0.740123
0.723893
0.708351
0.693455
0.679166
0.665447
0.652267
0.639592
0.627397
0.615653
0.604336
0.593424
0.582896
0.572731
0.562911
0.55342
0.544241
0.535358
0.526759
0.518429
0.510357
0.502529
0.494937
0.487569
0.480415
0.473467
0.466715
0.460152
0.453769
0.44756
0.441517
0.435634
0.429905
0.424323
0.418884
0.413581
0.408412
0.403443
8.07067
6.69608
5.69885
4.94658
4.36123
3.89414
3.51362
3.19816
2.93276
2.70661
2.51177
2.34229
2.19359
2.06215
1.94517
1.84043
1.74614
1.66082
1.58327
1.5125
1.44766
1.38805
1.33307
1.28221
1.23502
1.19113
1.1502
1.11196
1.07614
1.04252
1.0109
0.981126
0.953026
0.926468
0.901328
0.877497
0.854876
0.833377
0.812917
0.793425
0.774835
0.757084
0.740119
0.723889
0.708347
0.693451
0.679162
0.665444
0.652263
0.639589
0.627394
0.61565
0.604333
0.593421
0.582893
0.572728
0.562909
0.553418
0.544238
0.535356
0.526757
0.518427
0.510354
0.502527
0.494935
0.487567
0.480413
0.473465
0.466713
0.46015
0.453767
0.447558
0.441515
0.435632
0.429903
0.424322
0.418882
0.41358
0.40841
0.403441
8.07067
6.69608
5.69885
4.94658
4.36123
3.89414
3.51362
3.19817
2.93276
2.70661
2.51177
2.34229
2.19359
2.06215
1.94518
1.84044
1.74614
1.66082
1.58328
1.51251
1.44767
1.38806
1.33308
1.28221
1.23502
1.19113
1.15021
1.11196
1.07613
1.04251
1.0109
0.981122
0.953021
0.926463
0.901323
0.877492
0.854871
0.833371
0.812912
0.79342
0.77483
0.75708
0.740115
0.723885
0.708343
0.693447
0.679159
0.66544
0.65226
0.639586
0.62739
0.615646
0.60433
0.593418
0.58289
0.572725
0.562906
0.553415
0.544236
0.535354
0.526754
0.518425
0.510352
0.502525
0.494933
0.487565
0.480411
0.473463
0.466711
0.460148
0.453765
0.447556
0.441513
0.435631
0.429902
0.42432
0.418881
0.413578
0.408408
0.40344
8.07067
6.69608
5.69885
4.94659
4.36123
3.89414
3.51362
3.19817
2.93276
2.70661
2.51178
2.34229
2.1936
2.06216
1.94518
1.84044
1.74615
1.66083
1.58328
1.51251
1.44767
1.38806
1.33308
1.28222
1.23503
1.19113
1.15021
1.11196
1.07613
1.04251
1.0109
0.981118
0.953017
0.926457
0.901317
0.877486
0.854865
0.833366
0.812907
0.793415
0.774825
0.757075
0.74011
0.72388
0.708339
0.693443
0.679155
0.665437
0.652256
0.639582
0.627387
0.615643
0.604327
0.593415
0.582887
0.572723
0.562903
0.553412
0.544233
0.535351
0.526752
0.518422
0.51035
0.502523
0.49493
0.487562
0.480409
0.473461
0.466709
0.460146
0.453763
0.447554
0.441512
0.435629
0.4299
0.424318
0.418879
0.413576
0.408407
0.403438
8.07067
6.69608
5.69885
4.94659
4.36123
3.89415
3.51362
3.19817
2.93276
2.70661
2.51178
2.34229
2.1936
2.06216
1.94518
1.84045
1.74615
1.66083
1.58329
1.51252
1.44768
1.38807
1.33309
1.28222
1.23503
1.19114
1.15021
1.11196
1.07613
1.04251
1.01089
0.981114
0.953012
0.926452
0.901312
0.87748
0.85486
0.83336
0.812901
0.79341
0.77482
0.75707
0.740105
0.723876
0.708334
0.693439
0.679151
0.665433
0.652252
0.639579
0.627383
0.61564
0.604324
0.593412
0.582884
0.57272
0.5629
0.553409
0.54423
0.535348
0.526749
0.518419
0.510347
0.50252
0.494928
0.48756
0.480407
0.473458
0.466707
0.460144
0.453761
0.447552
0.44151
0.435627
0.429898
0.424316
0.418877
0.413575
0.408405
0.403436
8.07067
6.69608
5.69886
4.94659
4.36123
3.89415
3.51362
3.19817
2.93277
2.70662
2.51178
2.3423
2.1936
2.06216
1.94519
1.84045
1.74615
1.66084
1.58329
1.51252
1.44768
1.38807
1.33309
1.28222
1.23503
1.19114
1.15021
1.11196
1.07613
1.04251
1.01089
0.98111
0.953007
0.926447
0.901306
0.877475
0.854854
0.833355
0.812896
0.793405
0.774815
0.757065
0.740101
0.723871
0.70833
0.693435
0.679147
0.665429
0.652249
0.639575
0.62738
0.615636
0.60432
0.593409
0.582881
0.572717
0.562898
0.553407
0.544228
0.535346
0.526746
0.518417
0.510345
0.502518
0.494926
0.487558
0.480404
0.473456
0.466705
0.460142
0.453759
0.44755
0.441508
0.435625
0.429896
0.424315
0.418875
0.413573
0.408403
0.403435
8.07067
6.69608
5.69886
4.94659
4.36123
3.89415
3.51362
3.19817
2.93277
2.70662
2.51178
2.3423
2.19361
2.06217
1.94519
1.84045
1.74616
1.66084
1.5833
1.51253
1.44769
1.38808
1.33309
1.28223
1.23504
1.19114
1.15021
1.11196
1.07613
1.04251
1.01089
0.981106
0.953003
0.926442
0.901301
0.877469
0.854849
0.833349
0.812891
0.7934
0.77481
0.75706
0.740096
0.723867
0.708326
0.693431
0.679143
0.665425
0.652245
0.639572
0.627376
0.615633
0.604317
0.593406
0.582878
0.572714
0.562895
0.553404
0.544225
0.535343
0.526744
0.518414
0.510342
0.502516
0.494923
0.487556
0.480402
0.473454
0.466703
0.460139
0.453757
0.447548
0.441506
0.435623
0.429894
0.424313
0.418874
0.413571
0.408402
0.403433
8.07067
6.69608
5.69886
4.94659
4.36123
3.89415
3.51362
3.19817
2.93277
2.70662
2.51179
2.3423
2.19361
2.06217
1.94519
1.84046
1.74616
1.66085
1.5833
1.51253
1.44769
1.38808
1.3331
1.28223
1.23504
1.19114
1.15021
1.11196
1.07613
1.0425
1.01089
0.981102
0.952998
0.926437
0.901296
0.877464
0.854843
0.833344
0.812886
0.793395
0.774805
0.757056
0.740092
0.723863
0.708322
0.693427
0.679139
0.665422
0.652242
0.639568
0.627373
0.61563
0.604314
0.593403
0.582875
0.572711
0.562892
0.553401
0.544222
0.535341
0.526742
0.518412
0.51034
0.502513
0.494921
0.487553
0.4804
0.473452
0.4667
0.460138
0.453755
0.447546
0.441504
0.435621
0.429892
0.424311
0.418872
0.413569
0.4084
0.403431
8.07067
6.69608
5.69886
4.94659
4.36123
3.89415
3.51362
3.19817
2.93277
2.70662
2.51179
2.3423
2.19361
2.06217
1.9452
1.84046
1.74617
1.66085
1.58331
1.51253
1.4477
1.38808
1.3331
1.28223
1.23504
1.19114
1.15021
1.11196
1.07613
1.0425
1.01088
0.981098
0.952994
0.926433
0.901291
0.87746
0.854839
0.833339
0.812881
0.79339
0.7748
0.757051
0.740088
0.723859
0.708318
0.693423
0.679135
0.665418
0.652238
0.639565
0.62737
0.615627
0.604311
0.5934
0.582872
0.572708
0.562889
0.553399
0.54422
0.535338
0.526739
0.51841
0.510338
0.502511
0.494919
0.487551
0.480398
0.47345
0.466699
0.460136
0.453753
0.447545
0.441502
0.43562
0.429891
0.424309
0.41887
0.413568
0.408398
0.40343
8.07067
6.69608
5.69886
4.94659
4.36123
3.89415
3.51362
3.19817
2.93277
2.70662
2.51179
2.3423
2.19361
2.06218
1.9452
1.84046
1.74617
1.66085
1.58331
1.51254
1.4477
1.38809
1.3331
1.28224
1.23504
1.19114
1.15021
1.11196
1.07613
1.0425
1.01088
0.981095
0.95299
0.926429
0.901287
0.877455
0.854834
0.833335
0.812877
0.793386
0.774796
0.757047
0.740084
0.723855
0.708315
0.69342
0.679132
0.665415
0.652235
0.639562
0.627367
0.615624
0.604309
0.593398
0.58287
0.572706
0.562887
0.553396
0.544218
0.535336
0.526737
0.518408
0.510336
0.502509
0.494917
0.487549
0.480396
0.473448
0.466697
0.460134
0.453752
0.447543
0.4415
0.435618
0.429889
0.424308
0.418869
0.413566
0.408397
0.403428
8.07067
6.69608
5.69886
4.94659
4.36123
3.89415
3.51363
3.19817
2.93277
2.70662
2.51179
2.34231
2.19362
2.06218
1.9452
1.84047
1.74617
1.66086
1.58331
1.51254
1.4477
1.38809
1.33311
1.28224
1.23504
1.19115
1.15021
1.11196
1.07612
1.0425
1.01088
0.981092
0.952987
0.926425
0.901283
0.877451
0.85483
0.833331
0.812873
0.793382
0.774793
0.757044
0.74008
0.723852
0.708311
0.693417
0.679129
0.665412
0.652232
0.639559
0.627365
0.615622
0.604306
0.593395
0.582868
0.572704
0.562885
0.553394
0.544216
0.535334
0.526735
0.518406
0.510334
0.502507
0.494915
0.487548
0.480394
0.473447
0.466695
0.460132
0.45375
0.447541
0.441499
0.435616
0.429888
0.424306
0.418867
0.413565
0.408396
0.403427
8.07067
6.69608
5.69886
4.94659
4.36123
3.89415
3.51363
3.19817
2.93277
2.70663
2.51179
2.34231
2.19362
2.06218
1.9452
1.84047
1.74617
1.66086
1.58332
1.51254
1.4477
1.38809
1.33311
1.28224
1.23504
1.19115
1.15021
1.11195
1.07612
1.0425
1.01088
0.98109
0.952984
0.926422
0.90128
0.877448
0.854827
0.833328
0.812869
0.793379
0.774789
0.757041
0.740077
0.723849
0.708308
0.693414
0.679126
0.66541
0.65223
0.639557
0.627362
0.61562
0.604304
0.593393
0.582865
0.572702
0.562883
0.553392
0.544214
0.535332
0.526733
0.518404
0.510332
0.502506
0.494914
0.487546
0.480393
0.473445
0.466694
0.460131
0.453749
0.44754
0.441498
0.435615
0.429886
0.424305
0.418866
0.413564
0.408394
0.403426
8.07067
6.69608
5.69886
4.94659
4.36123
3.89415
3.51363
3.19818
2.93277
2.70663
2.51179
2.34231
2.19362
2.06218
1.94521
1.84047
1.74618
1.66086
1.58332
1.51255
1.44771
1.38809
1.33311
1.28224
1.23505
1.19115
1.15021
1.11195
1.07612
1.04249
1.01087
0.981087
0.952982
0.926419
0.901277
0.877445
0.854824
0.833325
0.812866
0.793376
0.774787
0.757038
0.740075
0.723846
0.708306
0.693412
0.679124
0.665407
0.652228
0.639555
0.62736
0.615618
0.604302
0.593391
0.582864
0.5727
0.562881
0.553391
0.544212
0.535331
0.526732
0.518403
0.510331
0.502504
0.494912
0.487545
0.480392
0.473444
0.466693
0.46013
0.453748
0.447539
0.441497
0.435614
0.429885
0.424304
0.418865
0.413563
0.408393
0.403425
8.07067
6.69608
5.69886
4.94659
4.36123
3.89415
3.51363
3.19818
2.93277
2.70663
2.51179
2.34231
2.19362
2.06218
1.94521
1.84047
1.74618
1.66086
1.58332
1.51255
1.44771
1.3881
1.33311
1.28224
1.23505
1.19115
1.15021
1.11195
1.07612
1.04249
1.01087
0.981085
0.95298
0.926417
0.901275
0.877442
0.854821
0.833322
0.812864
0.793374
0.774784
0.757036
0.740072
0.723844
0.708304
0.69341
0.679122
0.665405
0.652226
0.639553
0.627359
0.615616
0.6043
0.59339
0.582862
0.572698
0.56288
0.553389
0.544211
0.535329
0.526731
0.518401
0.51033
0.502503
0.494911
0.487544
0.480391
0.473443
0.466692
0.460129
0.453747
0.447538
0.441496
0.435613
0.429884
0.424303
0.418864
0.413562
0.408393
0.403424
8.07067
6.69608
5.69886
4.94659
4.36123
3.89415
3.51363
3.19818
2.93277
2.70663
2.51179
2.34231
2.19362
2.06218
1.94521
1.84047
1.74618
1.66086
1.58332
1.51255
1.44771
1.3881
1.33311
1.28224
1.23505
1.19115
1.15021
1.11195
1.07612
1.04249
1.01087
0.981084
0.952978
0.926415
0.901273
0.877441
0.85482
0.833321
0.812862
0.793372
0.774783
0.757034
0.740071
0.723843
0.708303
0.693408
0.679121
0.665404
0.652225
0.639552
0.627358
0.615615
0.604299
0.593389
0.582861
0.572698
0.562879
0.553389
0.54421
0.535329
0.52673
0.518401
0.510329
0.502503
0.494911
0.487543
0.48039
0.473442
0.466691
0.460128
0.453746
0.447537
0.441495
0.435613
0.429884
0.424303
0.418864
0.413562
0.408392
0.403424
8.07067
6.69608
5.69886
4.94659
4.36123
3.89415
3.51363
3.19818
2.93278
2.70663
2.51179
2.34231
2.19362
2.06218
1.94521
1.84047
1.74618
1.66087
1.58332
1.51255
1.44771
1.3881
1.33311
1.28224
1.23505
1.19115
1.15022
1.11196
1.07613
1.0425
1.01088
0.98109
0.952984
0.926422
0.901279
0.877447
0.854826
0.833327
0.812868
0.793378
0.774788
0.75704
0.740076
0.723848
0.708307
0.693413
0.679125
0.665408
0.652229
0.639556
0.627361
0.615618
0.604303
0.593392
0.582864
0.5727
0.562882
0.553391
0.544213
0.535331
0.526732
0.518403
0.510331
0.502505
0.494913
0.487545
0.480392
0.473444
0.466693
0.46013
0.453748
0.447539
0.441497
0.435614
0.429885
0.424304
0.418865
0.413563
0.408394
0.403425
8.07067
6.69608
5.69886
4.94659
4.36123
3.89415
3.51363
3.19818
2.93278
2.70663
2.51179
2.34231
2.19362
2.06218
1.94521
1.84047
1.74618
1.66086
1.58332
1.51255
1.44771
1.3881
1.33311
1.28225
1.23505
1.19115
1.15022
1.11196
1.07613
1.0425
1.01088
0.981092
0.952986
0.926424
0.901281
0.877449
0.854828
0.833329
0.81287
0.79338
0.77479
0.757041
0.740078
0.723849
0.708309
0.693414
0.679127
0.66541
0.65223
0.639557
0.627362
0.61562
0.604304
0.593393
0.582865
0.572701
0.562883
0.553392
0.544214
0.535332
0.526733
0.518404
0.510332
0.502505
0.494913
0.487546
0.480393
0.473445
0.466693
0.46013
0.453748
0.44754
0.441497
0.435615
0.429886
0.424305
0.418866
0.413563
0.408394
0.403426
8.07067
6.69608
5.69886
4.94659
4.36123
3.89415
3.51363
3.19818
2.93277
2.70663
2.51179
2.34231
2.19362
2.06218
1.94521
1.84047
1.74618
1.66086
1.58332
1.51255
1.44771
1.3881
1.33311
1.28224
1.23505
1.19115
1.15022
1.11196
1.07613
1.0425
1.01088
0.981094
0.952989
0.926426
0.901284
0.877452
0.854831
0.833331
0.812873
0.793382
0.774793
0.757044
0.74008
0.723852
0.708311
0.693417
0.679129
0.665412
0.652232
0.639559
0.627364
0.615621
0.604306
0.593395
0.582867
0.572703
0.562884
0.553394
0.544215