/*--------------------------------*- C++ -*----------------------------------*\
| =========                 |                                                 |
| \\      /  F ield         | OpenFOAM: The Open Source CFD Toolbox           |
|  \\    /   O peration     | Version:  2512                                  |
|   \\  /    A nd           | Website:  www.openfoam.com                      |
|    \\/     M anipulation  |                                                 |
\*---------------------------------------------------------------------------*/
FoamFile
{
    version     2.0;
    format      ascii;
    arch        "LSB;label=32;scalar=64";
    class       volScalarField;
    location    "222";
    object      p;
}
// * * * * * * * * * * * * * * * * * * * * * * * * * * * * * * * * * * * * * //

dimensions      [0 2 -2 0 0 0 0];

internalField   nonuniform List<scalar> 
335663
(
2.78679e-05
2.78412e-05
2.7771e-05
2.76582e-05
2.75011e-05
2.72933e-05
2.70262e-05
2.66895e-05
2.6271e-05
2.57559e-05
2.51273e-05
2.43658e-05
2.345e-05
2.23568e-05
2.10622e-05
1.95424e-05
1.77757e-05
1.57445e-05
1.34382e-05
1.08567e-05
8.01397e-06
4.94118e-06
1.68998e-06
-1.66639e-06
-5.03394e-06
-8.30188e-06
-1.13499e-05
-1.40586e-05
-1.63216e-05
-1.80581e-05
-1.92225e-05
-1.98095e-05
-1.98532e-05
-1.94202e-05
-1.85988e-05
-1.74873e-05
-1.61824e-05
-1.4772e-05
-1.33294e-05
-1.19122e-05
-1.05619e-05
-9.30606e-06
-8.16035e-06
-7.13124e-06
-6.21839e-06
-5.41676e-06
-4.71834e-06
-4.11354e-06
-3.59211e-06
-3.14388e-06
-2.75919e-06
-2.42914e-06
-2.14573e-06
-1.90193e-06
-1.69161e-06
-1.50952e-06
-1.35117e-06
-1.21279e-06
-1.09121e-06
-9.83772e-07
-8.88273e-07
-8.02878e-07
-7.26066e-07
-6.56576e-07
-5.93359e-07
-5.35543e-07
-4.824e-07
-4.33317e-07
-3.87776e-07
-3.45331e-07
-3.05596e-07
-2.68232e-07
-2.32931e-07
-1.99414e-07
-1.6742e-07
-1.36702e-07
-1.07019e-07
-7.81689e-08
-4.96941e-08
-2.39079e-08
2.78763e-05
2.78497e-05
2.77802e-05
2.76685e-05
2.75129e-05
2.73069e-05
2.70421e-05
2.67083e-05
2.6293e-05
2.57818e-05
2.51576e-05
2.44009e-05
2.34903e-05
2.24025e-05
2.11132e-05
1.95982e-05
1.78353e-05
1.58063e-05
1.34998e-05
1.09151e-05
8.06515e-06
4.98069e-06
1.71308e-06
-1.66418e-06
-5.05619e-06
-8.35051e-06
-1.14246e-05
-1.41562e-05
-1.64366e-05
-1.81828e-05
-1.93483e-05
-1.9928e-05
-1.99575e-05
-1.95054e-05
-1.86629e-05
-1.75303e-05
-1.62064e-05
-1.47798e-05
-1.33246e-05
-1.1898e-05
-1.05415e-05
-9.28207e-06
-8.13479e-06
-7.10565e-06
-6.19382e-06
-5.39389e-06
-4.69755e-06
-4.09499e-06
-3.5758e-06
-3.12971e-06
-2.74699e-06
-2.41871e-06
-2.13687e-06
-1.89444e-06
-1.6853e-06
-1.5042e-06
-1.3467e-06
-1.20903e-06
-1.08804e-06
-9.81103e-07
-8.86015e-07
-8.00961e-07
-7.24432e-07
-6.55176e-07
-5.92154e-07
-5.34502e-07
-4.81496e-07
-4.32529e-07
-3.87087e-07
-3.44728e-07
-3.05069e-07
-2.67773e-07
-2.32534e-07
-1.99075e-07
-1.67136e-07
-1.3647e-07
-1.06839e-07
-7.80353e-08
-4.96386e-08
-2.3757e-08
2.78927e-05
2.78666e-05
2.77984e-05
2.76888e-05
2.7536e-05
2.73337e-05
2.70734e-05
2.67451e-05
2.63364e-05
2.58328e-05
2.52171e-05
2.447e-05
2.35697e-05
2.24925e-05
2.12137e-05
1.97083e-05
1.7953e-05
1.59285e-05
1.3622e-05
1.1031e-05
8.16704e-06
5.05968e-06
1.75974e-06
-1.65881e-06
-5.09928e-06
-8.44601e-06
-1.15719e-05
-1.43495e-05
-1.66646e-05
-1.84303e-05
-1.9598e-05
-2.01632e-05
-2.01641e-05
-1.96744e-05
-1.87898e-05
-1.76155e-05
-1.62537e-05
-1.47952e-05
-1.33148e-05
-1.18699e-05
-1.05011e-05
-9.23451e-06
-8.08417e-06
-7.05497e-06
-6.14518e-06
-5.34863e-06
-4.65642e-06
-4.05828e-06
-3.54353e-06
-3.10166e-06
-2.72284e-06
-2.39808e-06
-2.11935e-06
-1.87961e-06
-1.6728e-06
-1.49368e-06
-1.33785e-06
-1.20159e-06
-1.08178e-06
-9.75817e-07
-8.81543e-07
-7.97164e-07
-7.21195e-07
-6.52403e-07
-5.89768e-07
-5.32438e-07
-4.79703e-07
-4.30965e-07
-3.8572e-07
-3.43531e-07
-3.04023e-07
-2.66861e-07
-2.31746e-07
-1.98401e-07
-1.66571e-07
-1.36009e-07
-1.06478e-07
-7.77706e-08
-4.94737e-08
-2.36442e-08
2.79168e-05
2.78915e-05
2.78252e-05
2.77187e-05
2.757e-05
2.73731e-05
2.71196e-05
2.67994e-05
2.64004e-05
2.5908e-05
2.53051e-05
2.45721e-05
2.3687e-05
2.26257e-05
2.13625e-05
1.98714e-05
1.81278e-05
1.61103e-05
1.3804e-05
1.1204e-05
8.31955e-06
5.17847e-06
1.83064e-06
-1.64929e-06
-5.16206e-06
-8.58718e-06
-1.17907e-05
-1.46372e-05
-1.70046e-05
-1.87995e-05
-1.99704e-05
-2.05134e-05
-2.04715e-05
-1.99248e-05
-1.89773e-05
-1.77407e-05
-1.63225e-05
-1.48165e-05
-1.3299e-05
-1.1827e-05
-1.04403e-05
-9.16342e-06
-8.00875e-06
-6.97965e-06
-6.07303e-06
-5.28159e-06
-4.59556e-06
-4.00404e-06
-3.49587e-06
-3.06027e-06
-2.68723e-06
-2.36767e-06
-2.09352e-06
-1.85778e-06
-1.65439e-06
-1.4782e-06
-1.32483e-06
-1.19064e-06
-1.07256e-06
-9.68042e-07
-8.74965e-07
-7.91579e-07
-7.16433e-07
-6.48325e-07
-5.86258e-07
-5.29403e-07
-4.77066e-07
-4.28667e-07
-3.8371e-07
-3.41772e-07
-3.02484e-07
-2.65521e-07
-2.30587e-07
-1.97412e-07
-1.65742e-07
-1.35333e-07
-1.0595e-07
-7.73864e-08
-4.92315e-08
-2.35197e-08
2.79481e-05
2.79237e-05
2.786e-05
2.77574e-05
2.76142e-05
2.74243e-05
2.71796e-05
2.687e-05
2.64836e-05
2.60057e-05
2.54195e-05
2.4705e-05
2.38398e-05
2.27993e-05
2.15567e-05
2.00848e-05
1.83567e-05
1.63488e-05
1.40433e-05
1.14321e-05
8.52156e-06
5.33676e-06
1.92643e-06
-1.6341e-06
-5.24221e-06
-8.77109e-06
-1.20778e-05
-1.50159e-05
-1.74528e-05
-1.92866e-05
-2.04613e-05
-2.09745e-05
-2.0875e-05
-2.02525e-05
-1.92212e-05
-1.79023e-05
-1.64099e-05
-1.48419e-05
-1.3276e-05
-1.17691e-05
-1.03594e-05
-9.06942e-06
-7.90948e-06
-6.88083e-06
-5.9786e-06
-5.19401e-06
-4.51618e-06
-3.93337e-06
-3.43384e-06
-3.00646e-06
-2.64096e-06
-2.32817e-06
-2.06e-06
-1.82944e-06
-1.63051e-06
-1.45811e-06
-1.30795e-06
-1.17645e-06
-1.06061e-06
-9.57958e-07
-8.66433e-07
-7.84334e-07
-7.10256e-07
-6.43033e-07
-5.81703e-07
-5.25463e-07
-4.73643e-07
-4.25681e-07
-3.81099e-07
-3.39486e-07
-3.00485e-07
-2.63779e-07
-2.29081e-07
-1.96126e-07
-1.64663e-07
-1.34454e-07
-1.05264e-07
-7.68875e-08
-4.89163e-08
-2.3369e-08
2.79858e-05
2.79626e-05
2.79019e-05
2.78041e-05
2.76675e-05
2.74861e-05
2.72519e-05
2.69552e-05
2.6584e-05
2.61239e-05
2.55579e-05
2.48659e-05
2.40252e-05
2.30101e-05
2.1793e-05
2.03448e-05
1.86363e-05
1.66409e-05
1.43372e-05
1.17134e-05
8.77181e-06
5.53437e-06
2.04805e-06
-1.61116e-06
-5.33667e-06
-8.99395e-06
-1.24287e-05
-1.54811e-05
-1.80046e-05
-1.98867e-05
-2.10659e-05
-2.15412e-05
-2.13694e-05
-2.06522e-05
-1.95168e-05
-1.80962e-05
-1.65126e-05
-1.4869e-05
-1.32445e-05
-1.16956e-05
-1.02585e-05
-8.9533e-06
-7.78751e-06
-6.75989e-06
-5.86336e-06
-5.08739e-06
-4.41972e-06
-3.84762e-06
-3.35868e-06
-2.94131e-06
-2.585e-06
-2.28043e-06
-2.0195e-06
-1.79523e-06
-1.60169e-06
-1.43387e-06
-1.28758e-06
-1.15932e-06
-1.04619e-06
-9.45793e-07
-8.5614e-07
-7.75594e-07
-7.02801e-07
-6.36647e-07
-5.76204e-07
-5.20706e-07
-4.69509e-07
-4.22075e-07
-3.77944e-07
-3.36723e-07
-2.98067e-07
-2.61672e-07
-2.27259e-07
-1.9457e-07
-1.63359e-07
-1.33392e-07
-1.04436e-07
-7.62858e-08
-4.8537e-08
-2.31918e-08
2.80291e-05
2.80072e-05
2.795e-05
2.78577e-05
2.77286e-05
2.7557e-05
2.7335e-05
2.70531e-05
2.66995e-05
2.626e-05
2.57174e-05
2.50515e-05
2.42392e-05
2.3254e-05
2.20669e-05
2.06467e-05
1.89617e-05
1.69819e-05
1.46817e-05
1.20445e-05
9.06809e-06
5.77042e-06
2.19612e-06
-1.57833e-06
-5.4419e-06
-9.25103e-06
-1.2838e-05
-1.60266e-05
-1.86536e-05
-2.05931e-05
-2.17771e-05
-2.22064e-05
-2.19474e-05
-2.11167e-05
-1.98577e-05
-1.83169e-05
-1.66267e-05
-1.48951e-05
-1.3203e-05
-1.16061e-05
-1.01382e-05
-8.81623e-06
-7.64448e-06
-6.61871e-06
-5.72931e-06
-4.9637e-06
-4.30807e-06
-3.74856e-06
-3.27198e-06
-2.86625e-06
-2.52058e-06
-2.22553e-06
-1.97296e-06
-1.75593e-06
-1.56859e-06
-1.40605e-06
-1.2642e-06
-1.13967e-06
-1.02965e-06
-9.31837e-07
-8.44331e-07
-7.65564e-07
-6.94247e-07
-6.29316e-07
-5.69891e-07
-5.15242e-07
-4.6476e-07
-4.1793e-07
-3.74316e-07
-3.33545e-07
-2.95286e-07
-2.59247e-07
-2.25161e-07
-1.92777e-07
-1.61857e-07
-1.32169e-07
-1.03482e-07
-7.55941e-08
-4.81014e-08
-2.29899e-08
2.80769e-05
2.80565e-05
2.80031e-05
2.7917e-05
2.77962e-05
2.76355e-05
2.7427e-05
2.71615e-05
2.68276e-05
2.64109e-05
2.58944e-05
2.52579e-05
2.44775e-05
2.3526e-05
2.23729e-05
2.09849e-05
1.93274e-05
1.73663e-05
1.50715e-05
1.24211e-05
9.4073e-06
6.04336e-06
2.3709e-06
-1.53339e-06
-5.55377e-06
-9.53655e-06
-1.32986e-05
-1.66443e-05
-1.9391e-05
-2.13967e-05
-2.25855e-05
-2.29604e-05
-2.25997e-05
-2.16376e-05
-2.02363e-05
-1.85586e-05
-1.67477e-05
-1.49174e-05
-1.31503e-05
-1.15007e-05
-9.99954e-06
-8.65993e-06
-7.48252e-06
-6.45967e-06
-5.57889e-06
-4.82534e-06
-4.18349e-06
-3.63824e-06
-3.17559e-06
-2.78292e-06
-2.44915e-06
-2.1647e-06
-1.92143e-06
-1.71245e-06
-1.53199e-06
-1.37528e-06
-1.23836e-06
-1.11794e-06
-1.01137e-06
-9.16412e-07
-8.31278e-07
-7.54476e-07
-6.84787e-07
-6.21208e-07
-5.62907e-07
-5.09196e-07
-4.59502e-07
-4.13339e-07
-3.70298e-07
-3.30022e-07
-2.92201e-07
-2.56557e-07
-2.22832e-07
-1.90787e-07
-1.60189e-07
-1.30811e-07
-1.02425e-07
-7.48276e-08
-4.76194e-08
-2.27672e-08
2.81282e-05
2.81093e-05
2.80601e-05
2.79805e-05
2.78687e-05
2.77196e-05
2.75257e-05
2.7278e-05
2.69651e-05
2.65732e-05
2.60851e-05
2.54804e-05
2.47348e-05
2.38203e-05
2.27048e-05
2.13527e-05
1.97262e-05
1.77872e-05
1.55002e-05
1.28375e-05
9.78504e-06
6.35056e-06
2.57194e-06
-1.47439e-06
-5.66787e-06
-9.84379e-06
-1.38017e-05
-1.73241e-05
-2.02056e-05
-2.22856e-05
-2.3479e-05
-2.37914e-05
-2.33149e-05
-2.22044e-05
-2.0644e-05
-1.88143e-05
-1.68708e-05
-1.49332e-05
-1.30855e-05
-1.138e-05
-9.84403e-06
-8.48669e-06
-7.30436e-06
-6.28567e-06
-5.41503e-06
-4.67512e-06
-4.0486e-06
-3.51907e-06
-3.07165e-06
-2.6932e-06
-2.37233e-06
-2.09937e-06
-1.86613e-06
-1.66581e-06
-1.49276e-06
-1.34232e-06
-1.21067e-06
-1.09468e-06
-9.91786e-07
-8.99894e-07
-8.17299e-07
-7.426e-07
-6.74654e-07
-6.1252e-07
-5.55421e-07
-5.02715e-07
-4.53863e-07
-4.08414e-07
-3.65984e-07
-3.26239e-07
-2.88887e-07
-2.53665e-07
-2.20328e-07
-1.88647e-07
-1.58396e-07
-1.29351e-07
-1.01288e-07
-7.40047e-08
-4.71026e-08
-2.25289e-08
2.81816e-05
2.81645e-05
2.81195e-05
2.80468e-05
2.79444e-05
2.78075e-05
2.76288e-05
2.73997e-05
2.7109e-05
2.67431e-05
2.62849e-05
2.5714e-05
2.50055e-05
2.41306e-05
2.30554e-05
2.17424e-05
2.01502e-05
1.82363e-05
1.59598e-05
1.32864e-05
1.01954e-05
6.68806e-06
2.79775e-06
-1.39988e-06
-5.77964e-06
-1.01651e-05
-1.4337e-05
-1.80535e-05
-2.10833e-05
-2.32449e-05
-2.44423e-05
-2.46844e-05
-2.40791e-05
-2.28051e-05
-2.10708e-05
-1.90769e-05
-1.69914e-05
-1.49403e-05
-1.30081e-05
-1.12449e-05
-9.67395e-06
-8.29947e-06
-7.11335e-06
-6.10021e-06
-5.24114e-06
-4.51627e-06
-3.90637e-06
-3.39371e-06
-2.96253e-06
-2.59915e-06
-2.29192e-06
-2.03104e-06
-1.80835e-06
-1.61712e-06
-1.45182e-06
-1.30794e-06
-1.18181e-06
-1.07043e-06
-9.71373e-07
-8.82674e-07
-8.02724e-07
-7.30217e-07
-6.64087e-07
-6.03458e-07
-5.47611e-07
-4.95949e-07
-4.47975e-07
-4.0327e-07
-3.61476e-07
-3.22284e-07
-2.8542e-07
-2.50638e-07
-2.17707e-07
-1.86405e-07
-1.56517e-07
-1.27822e-07
-1.00099e-07
-7.31445e-08
-4.65631e-08
-2.22804e-08
2.82361e-05
2.82206e-05
2.818e-05
2.81143e-05
2.80215e-05
2.7897e-05
2.77339e-05
2.75238e-05
2.72559e-05
2.69167e-05
2.64894e-05
2.59533e-05
2.52833e-05
2.44495e-05
2.34169e-05
2.21452e-05
2.059e-05
1.87041e-05
1.64408e-05
1.37592e-05
1.06309e-05
7.05032e-06
3.04556e-06
-1.30929e-06
-5.88466e-06
-1.04922e-05
-1.48925e-05
-1.88174e-05
-2.20069e-05
-2.4256e-05
-2.54567e-05
-2.56214e-05
-2.48762e-05
-2.3426e-05
-2.15062e-05
-1.93388e-05
-1.71052e-05
-1.49368e-05
-1.29187e-05
-1.10977e-05
-9.49242e-06
-8.10202e-06
-6.91352e-06
-5.90733e-06
-5.06112e-06
-4.35243e-06
-3.76011e-06
-3.26511e-06
-2.85082e-06
-2.50304e-06
-2.20986e-06
-1.96139e-06
-1.74951e-06
-1.56756e-06
-1.41018e-06
-1.27299e-06
-1.15247e-06
-1.04579e-06
-9.50641e-07
-8.65185e-07
-7.87923e-07
-7.17642e-07
-6.53354e-07
-5.94253e-07
-5.39676e-07
-4.89074e-07
-4.4199e-07
-3.98039e-07
-3.5689e-07
-3.18258e-07
-2.8189e-07
-2.47554e-07
-2.15035e-07
-1.8412e-07
-1.54601e-07
-1.26264e-07
-9.88873e-08
-7.22695e-08
-4.60152e-08
-2.20284e-08
2.82902e-05
2.82764e-05
2.82402e-05
2.81814e-05
2.80982e-05
2.7986e-05
2.78385e-05
2.76474e-05
2.74023e-05
2.70899e-05
2.66935e-05
2.61925e-05
2.55615e-05
2.47696e-05
2.37805e-05
2.25517e-05
2.10353e-05
1.91796e-05
1.69323e-05
1.42451e-05
1.10821e-05
7.42999e-06
3.31096e-06
-1.20314e-06
-5.97894e-06
-1.08162e-05
-1.54547e-05
-1.95979e-05
-2.29555e-05
-2.52965e-05
-2.64996e-05
-2.65812e-05
-2.56874e-05
-2.40518e-05
-2.19388e-05
-1.95928e-05
-1.72082e-05
-1.4922e-05
-1.28186e-05
-1.09412e-05
-9.30339e-06
-7.89882e-06
-6.70951e-06
-5.71157e-06
-4.87927e-06
-4.18753e-06
-3.61334e-06
-3.13639e-06
-2.73922e-06
-2.40719e-06
-2.12814e-06
-1.89211e-06
-1.69103e-06
-1.51835e-06
-1.36885e-06
-1.23832e-06
-1.12338e-06
-1.02136e-06
-9.30089e-07
-8.47851e-07
-7.73253e-07
-7.05177e-07
-6.42715e-07
-5.85128e-07
-5.31809e-07
-4.82257e-07
-4.36054e-07
-3.92849e-07
-3.52339e-07
-3.14262e-07
-2.78385e-07
-2.44491e-07
-2.12379e-07
-1.81848e-07
-1.52697e-07
-1.24715e-07
-9.76848e-08
-7.14023e-08
-4.54733e-08
-2.178e-08
2.83428e-05
2.83306e-05
2.82986e-05
2.82465e-05
2.81726e-05
2.80725e-05
2.794e-05
2.77674e-05
2.75445e-05
2.72583e-05
2.68923e-05
2.64258e-05
2.58332e-05
2.5083e-05
2.41373e-05
2.29516e-05
2.14749e-05
1.96511e-05
1.74218e-05
1.47321e-05
1.15378e-05
7.81782e-06
3.58779e-06
-1.08338e-06
-6.05922e-06
-1.1128e-05
-1.60084e-05
-2.0375e-05
-2.39051e-05
-2.63401e-05
-2.75447e-05
-2.75395e-05
-2.64918e-05
-2.46662e-05
-2.23571e-05
-1.98318e-05
-1.72977e-05
-1.48961e-05
-1.27103e-05
-1.07795e-05
-9.11174e-06
-7.69513e-06
-6.50659e-06
-5.518e-06
-4.70027e-06
-4.02581e-06
-3.46984e-06
-3.01084e-06
-2.63061e-06
-2.31406e-06
-2.04885e-06
-1.82497e-06
-1.63441e-06
-1.47076e-06
-1.32891e-06
-1.20482e-06
-1.09529e-06
-9.97781e-07
-9.10262e-07
-8.31132e-07
-7.59108e-07
-6.93161e-07
-6.32461e-07
-5.76333e-07
-5.24227e-07
-4.75687e-07
-4.30333e-07
-3.87847e-07
-3.47952e-07
-3.10408e-07
-2.75002e-07
-2.41534e-07
-2.09815e-07
-1.79654e-07
-1.50857e-07
-1.2322e-07
-9.65242e-08
-7.05663e-08
-4.49516e-08
-2.15408e-08
2.83925e-05
2.83819e-05
2.83539e-05
2.83082e-05
2.8243e-05
2.81543e-05
2.80361e-05
2.7881e-05
2.76792e-05
2.74178e-05
2.70808e-05
2.66473e-05
2.60915e-05
2.53814e-05
2.44779e-05
2.33345e-05
2.18971e-05
2.01056e-05
1.78961e-05
1.52065e-05
1.19852e-05
8.20278e-06
3.86807e-06
-9.53541e-07
-6.12326e-06
-1.14186e-05
-1.65378e-05
-2.11264e-05
-2.48285e-05
-2.73573e-05
-2.85624e-05
-2.84691e-05
-2.72669e-05
-2.5252e-05
-2.27497e-05
-2.00497e-05
-1.73716e-05
-1.48603e-05
-1.25974e-05
-1.06175e-05
-8.92307e-06
-7.49673e-06
-6.31042e-06
-5.3319e-06
-4.52892e-06
-3.87155e-06
-3.33335e-06
-2.8917e-06
-2.52774e-06
-2.226e-06
-1.97398e-06
-1.76165e-06
-1.58107e-06
-1.42594e-06
-1.29133e-06
-1.17333e-06
-1.0689e-06
-9.75632e-07
-8.91643e-07
-8.15438e-07
-7.45835e-07
-6.8189e-07
-6.22845e-07
-5.68089e-07
-5.17121e-07
-4.69531e-07
-4.24975e-07
-3.83162e-07
-3.43844e-07
-3.06801e-07
-2.71836e-07
-2.38767e-07
-2.07415e-07
-1.776e-07
-1.49136e-07
-1.21822e-07
-9.54421e-08
-6.97894e-08
-4.44691e-08
-2.13214e-08
2.84383e-05
2.84291e-05
2.84047e-05
2.83649e-05
2.83077e-05
2.82294e-05
2.81243e-05
2.79853e-05
2.78029e-05
2.75645e-05
2.72541e-05
2.68512e-05
2.63297e-05
2.56569e-05
2.4793e-05
2.36895e-05
2.22899e-05
2.053e-05
1.83408e-05
1.5654e-05
1.24103e-05
8.5723e-06
4.14219e-06
-8.18712e-07
-6.17005e-06
-1.16797e-05
-1.70267e-05
-2.18283e-05
-2.56963e-05
-2.83153e-05
-2.95202e-05
-2.93408e-05
-2.79887e-05
-2.57919e-05
-2.31057e-05
-2.02413e-05
-1.74292e-05
-1.48171e-05
-1.24844e-05
-1.04609e-05
-8.74368e-06
-7.30995e-06
-6.12702e-06
-5.15884e-06
-4.37024e-06
-3.72917e-06
-3.20772e-06
-2.7823e-06
-2.43347e-06
-2.14544e-06
-1.90558e-06
-1.70387e-06
-1.53244e-06
-1.38514e-06
-1.25714e-06
-1.1447e-06
-1.04492e-06
-9.5553e-07
-8.74757e-07
-8.01215e-07
-7.33814e-07
-6.71688e-07
-6.14148e-07
-5.60637e-07
-5.10703e-07
-4.63974e-07
-4.20139e-07
-3.78936e-07
-3.40138e-07
-3.03547e-07
-2.6898e-07
-2.3627e-07
-2.05249e-07
-1.75747e-07
-1.47583e-07
-1.20561e-07
-9.44647e-08
-6.90874e-08
-4.40323e-08
-2.11214e-08
2.84791e-05
2.84711e-05
2.845e-05
2.84152e-05
2.83652e-05
2.8296e-05
2.82026e-05
2.80778e-05
2.79125e-05
2.76944e-05
2.74078e-05
2.70321e-05
2.65412e-05
2.5902e-05
2.50738e-05
2.40066e-05
2.26416e-05
2.09112e-05
1.8742e-05
1.60597e-05
1.27981e-05
8.91287e-06
4.39926e-06
-6.85376e-07
-6.19989e-06
-1.19039e-05
-1.7459e-05
-2.24565e-05
-2.64777e-05
-2.91802e-05
-3.03844e-05
-3.01244e-05
-2.86334e-05
-2.62691e-05
-2.34153e-05
-2.04025e-05
-1.74709e-05
-1.477e-05
-1.23766e-05
-1.0316e-05
-8.58004e-06
-7.14111e-06
-5.96228e-06
-5.00413e-06
-4.22892e-06
-3.60276e-06
-3.09646e-06
-2.68563e-06
-2.35031e-06
-2.07447e-06
-1.8454e-06
-1.6531e-06
-1.48977e-06
-1.34935e-06
-1.22718e-06
-1.11964e-06
-1.02395e-06
-9.37968e-07
-8.6002e-07
-7.88816e-07
-7.23347e-07
-6.62818e-07
-6.06596e-07
-5.54176e-07
-5.05147e-07
-4.59171e-07
-4.15967e-07
-3.75296e-07
-3.36952e-07
-3.00752e-07
-2.66532e-07
-2.34132e-07
-2.03397e-07
-1.74165e-07
-1.4626e-07
-1.1949e-07
-9.36394e-08
-6.84994e-08
-4.36713e-08
-2.09605e-08
2.85139e-05
2.85069e-05
2.84885e-05
2.84581e-05
2.8414e-05
2.83526e-05
2.82689e-05
2.81561e-05
2.80053e-05
2.78044e-05
2.75378e-05
2.71852e-05
2.67203e-05
2.61097e-05
2.5312e-05
2.42761e-05
2.29411e-05
2.12368e-05
1.90859e-05
1.6409e-05
1.31343e-05
9.21074e-06
4.62786e-06
-5.6095e-07
-6.21426e-06
-1.2085e-05
-1.78199e-05
-2.29876e-05
-2.71425e-05
-2.9918e-05
-3.11214e-05
-3.07905e-05
-2.91778e-05
-2.66681e-05
-2.367e-05
-2.05307e-05
-1.74982e-05
-1.47232e-05
-1.22799e-05
-1.01893e-05
-8.43874e-06
-6.99651e-06
-5.82202e-06
-4.873e-06
-4.10957e-06
-3.49631e-06
-3.003e-06
-2.60458e-06
-2.28072e-06
-2.01519e-06
-1.79521e-06
-1.61081e-06
-1.45427e-06
-1.31963e-06
-1.20233e-06
-1.09888e-06
-1.00661e-06
-9.23464e-07
-8.47868e-07
-7.7861e-07
-7.14747e-07
-6.55543e-07
-6.00415e-07
-5.48899e-07
-5.00618e-07
-4.55263e-07
-4.12578e-07
-3.72343e-07
-3.34371e-07
-2.98492e-07
-2.64552e-07
-2.32404e-07
-2.019e-07
-1.72885e-07
-1.45189e-07
-1.18622e-07
-9.2969e-08
-6.80192e-08
-4.33726e-08
-2.08228e-08
2.8542e-05
2.85358e-05
2.85195e-05
2.84925e-05
2.84531e-05
2.83978e-05
2.83217e-05
2.82184e-05
2.80789e-05
2.78915e-05
2.76408e-05
2.73063e-05
2.68619e-05
2.6274e-05
2.55006e-05
2.44897e-05
2.31789e-05
2.14959e-05
1.93603e-05
1.6689e-05
1.34052e-05
9.45297e-06
4.81684e-06
-4.5309e-07
-6.2155e-06
-1.22183e-05
-1.80965e-05
-2.34006e-05
-2.7663e-05
-3.04972e-05
-3.16998e-05
-3.13117e-05
-2.96013e-05
-2.69755e-05
-2.38629e-05
-2.06241e-05
-1.75131e-05
-1.4681e-05
-1.21996e-05
-1.00866e-05
-8.32567e-06
-6.88166e-06
-5.71121e-06
-4.76981e-06
-4.01594e-06
-3.41302e-06
-2.93003e-06
-2.54143e-06
-2.22659e-06
-1.96915e-06
-1.75629e-06
-1.57807e-06
-1.42683e-06
-1.2967e-06
-1.1832e-06
-1.08294e-06
-9.93328e-07
-9.12388e-07
-8.38621e-07
-7.70873e-07
-7.08257e-07
-6.5008e-07
-5.95798e-07
-5.44979e-07
-4.97274e-07
-4.52397e-07
-4.10109e-07
-3.70207e-07
-3.32516e-07
-2.96877e-07
-2.63147e-07
-2.31186e-07
-2.00853e-07
-1.71997e-07
-1.44453e-07
-1.18032e-07
-9.2521e-08
-6.77067e-08
-4.31871e-08
-2.07456e-08
2.85626e-05
2.85571e-05
2.85423e-05
2.85177e-05
2.84815e-05
2.84304e-05
2.83597e-05
2.8263e-05
2.81314e-05
2.79535e-05
2.77138e-05
2.73921e-05
2.69621e-05
2.63901e-05
2.56338e-05
2.46406e-05
2.33471e-05
2.16794e-05
1.95552e-05
1.68886e-05
1.35996e-05
9.62848e-06
4.95648e-06
-3.6881e-07
-6.2063e-06
-1.23005e-05
-1.82785e-05
-2.36779e-05
-2.80158e-05
-3.08914e-05
-3.20935e-05
-3.16654e-05
-2.98869e-05
-2.71804e-05
-2.39889e-05
-2.06822e-05
-1.75179e-05
-1.46474e-05
-1.21408e-05
-1.00133e-05
-8.24596e-06
-6.80135e-06
-5.63415e-06
-4.69836e-06
-3.95134e-06
-3.35572e-06
-2.87997e-06
-2.4982e-06
-2.18962e-06
-1.93778e-06
-1.72985e-06
-1.55589e-06
-1.40829e-06
-1.28125e-06
-1.17037e-06
-1.07229e-06
-9.84488e-07
-9.05055e-07
-8.32534e-07
-7.65814e-07
-7.04043e-07
-6.4656e-07
-5.92849e-07
-5.42498e-07
-4.95178e-07
-4.50617e-07
-4.0859e-07
-3.68905e-07
-3.31395e-07
-2.9591e-07
-2.62311e-07
-2.30465e-07
-2.00235e-07
-1.71475e-07
-1.4402e-07
-1.17684e-07
-9.22545e-08
-6.75165e-08
-4.30673e-08
-2.06878e-08
2.85755e-05
2.85703e-05
2.85563e-05
2.8533e-05
2.84986e-05
2.84499e-05
2.83821e-05
2.82889e-05
2.81617e-05
2.79889e-05
2.77551e-05
2.74403e-05
2.70181e-05
2.64547e-05
2.57077e-05
2.47241e-05
2.34401e-05
2.17809e-05
1.96633e-05
1.69998e-05
1.3709e-05
9.72904e-06
5.03942e-06
-3.136e-07
-6.18909e-06
-1.23299e-05
-1.83589e-05
-2.38073e-05
-2.81842e-05
-3.10812e-05
-3.22834e-05
-3.18352e-05
-3.00224e-05
-2.72756e-05
-2.40449e-05
-2.07047e-05
-1.75145e-05
-1.46256e-05
-1.21071e-05
-9.973e-06
-8.2031e-06
-6.75874e-06
-5.59365e-06
-4.66106e-06
-3.91781e-06
-3.32612e-06
-2.85423e-06
-2.47609e-06
-2.17081e-06
-1.92191e-06
-1.71655e-06
-1.54481e-06
-1.39912e-06
-1.2737e-06
-1.16416e-06
-1.06722e-06
-9.8036e-07
-9.01707e-07
-8.29827e-07
-7.63634e-07
-7.02294e-07
-6.45162e-07
-5.91735e-07
-5.41616e-07
-4.94481e-07
-4.5007e-07
-4.08164e-07
-3.68575e-07
-3.31141e-07
-2.95717e-07
-2.62168e-07
-2.30361e-07
-2.00163e-07
-1.71429e-07
-1.43996e-07
-1.17679e-07
-9.22635e-08
-6.75359e-08
-4.30917e-08
-2.07099e-08
2.85804e-05
2.85752e-05
2.85613e-05
2.85382e-05
2.85041e-05
2.84557e-05
2.83883e-05
2.82956e-05
2.81689e-05
2.79967e-05
2.77637e-05
2.74497e-05
2.70284e-05
2.6466e-05
2.57201e-05
2.47377e-05
2.34549e-05
2.1797e-05
1.96807e-05
1.70186e-05
1.3729e-05
9.75023e-06
5.06163e-06
-2.90541e-07
-6.16537e-06
-1.23057e-05
-1.83344e-05
-2.37827e-05
-2.81595e-05
-3.10568e-05
-3.22597e-05
-3.18128e-05
-3.00018e-05
-2.72573e-05
-2.40294e-05
-2.06918e-05
-1.7504e-05
-1.46172e-05
-1.21005e-05
-9.96785e-06
-8.19911e-06
-6.75569e-06
-5.59135e-06
-4.65937e-06
-3.91659e-06
-3.3253e-06
-2.85371e-06
-2.47583e-06
-2.17075e-06
-1.92202e-06
-1.7168e-06
-1.54517e-06
-1.39957e-06
-1.27421e-06
-1.16473e-06
-1.06782e-06
-9.80996e-07
-9.02361e-07
-8.30492e-07
-7.64303e-07
-7.0296e-07
-6.45821e-07
-5.92382e-07
-5.42247e-07
-4.95094e-07
-4.50661e-07
-4.08729e-07
-3.69113e-07
-3.3165e-07
-2.96195e-07
-2.62611e-07
-2.30768e-07
-2.00532e-07
-1.71756e-07
-1.44279e-07
-1.17915e-07
-9.24507e-08
-6.76708e-08
-4.31721e-08
-2.07415e-08
2.85772e-05
2.85718e-05
2.85574e-05
2.85333e-05
2.84979e-05
2.84478e-05
2.83783e-05
2.82829e-05
2.81531e-05
2.7977e-05
2.77395e-05
2.74202e-05
2.69929e-05
2.64239e-05
2.56709e-05
2.46811e-05
2.33914e-05
2.17276e-05
1.96073e-05
1.69446e-05
1.36594e-05
9.69175e-06
5.02281e-06
-2.99951e-07
-6.13549e-06
-1.22283e-05
-1.82053e-05
-2.36043e-05
-2.79423e-05
-3.08187e-05
-3.20229e-05
-3.15985e-05
-2.98255e-05
-2.7126e-05
-2.39425e-05
-2.06436e-05
-1.74865e-05
-1.46223e-05
-1.21209e-05
-9.99764e-06
-8.2338e-06
-6.79201e-06
-5.62707e-06
-4.69309e-06
-3.94754e-06
-3.3531e-06
-2.87831e-06
-2.49734e-06
-2.1894e-06
-1.93809e-06
-1.73058e-06
-1.55697e-06
-1.40966e-06
-1.28285e-06
-1.17214e-06
-1.07419e-06
-9.86493e-07
-9.07129e-07
-8.3465e-07
-7.6795e-07
-7.06179e-07
-6.48679e-07
-5.94935e-07
-5.4454e-07
-4.97163e-07
-4.52536e-07
-4.10434e-07
-3.70666e-07
-3.33065e-07
-2.97483e-07
-2.6378e-07
-2.31822e-07
-2.01472e-07
-1.72584e-07
-1.44994e-07
-1.18514e-07
-9.29307e-08
-6.80309e-08
-4.34101e-08
-2.08633e-08
2.85661e-05
2.85602e-05
2.85445e-05
2.85185e-05
2.84803e-05
2.84266e-05
2.83525e-05
2.82515e-05
2.81147e-05
2.79305e-05
2.76833e-05
2.73529e-05
2.69129e-05
2.633e-05
2.55619e-05
2.45568e-05
2.32522e-05
2.15755e-05
1.94464e-05
1.67816e-05
1.3504e-05
9.55747e-06
4.92636e-06
-3.39409e-07
-6.09861e-06
-1.20991e-05
-1.79758e-05
-2.32793e-05
-2.75419e-05
-3.03777e-05
-3.15838e-05
-3.12018e-05
-2.95004e-05
-2.6886e-05
-2.37862e-05
-2.05603e-05
-1.7461e-05
-1.46391e-05
-1.21663e-05
-1.00604e-05
-8.30533e-06
-6.866e-06
-5.69932e-06
-4.76095e-06
-4.00953e-06
-3.40859e-06
-2.92721e-06
-2.53992e-06
-2.22614e-06
-1.96958e-06
-1.75744e-06
-1.57979e-06
-1.42901e-06
-1.29925e-06
-1.18604e-06
-1.086e-06
-9.96543e-07
-9.15713e-07
-8.42013e-07
-7.74295e-07
-7.11677e-07
-6.5347e-07
-5.99135e-07
-5.48242e-07
-5.00444e-07
-4.55459e-07
-4.13049e-07
-3.73011e-07
-3.35173e-07
-2.99375e-07
-2.65475e-07
-2.33331e-07
-2.02803e-07
-1.7374e-07
-1.45975e-07
-1.19319e-07
-9.35591e-08
-6.8482e-08
-4.36859e-08
-2.09833e-08
2.85475e-05
2.85409e-05
2.85233e-05
2.84942e-05
2.84518e-05
2.83927e-05
2.83117e-05
2.82022e-05
2.80551e-05
2.78586e-05
2.7597e-05
2.72499e-05
2.67911e-05
2.61874e-05
2.5397e-05
2.43691e-05
2.30426e-05
2.1347e-05
1.9205e-05
1.6537e-05
1.32708e-05
9.35504e-06
4.77904e-06
-4.04059e-07
-6.05297e-06
-1.19206e-05
-1.76536e-05
-2.28205e-05
-2.6976e-05
-2.97537e-05
-3.09621e-05
-3.06397e-05
-2.90393e-05
-2.65451e-05
-2.35642e-05
-2.04422e-05
-1.74257e-05
-1.46647e-05
-1.22332e-05
-1.01524e-05
-8.40991e-06
-6.97421e-06
-5.805e-06
-4.86024e-06
-4.10026e-06
-3.4898e-06
-2.99878e-06
-2.60222e-06
-2.27988e-06
-2.0156e-06
-1.79665e-06
-1.61307e-06
-1.4572e-06
-1.32309e-06
-1.20621e-06
-1.10309e-06
-1.01105e-06
-9.28068e-07
-8.52576e-07
-7.83368e-07
-7.19511e-07
-6.60272e-07
-6.05075e-07
-5.5346e-07
-5.05054e-07
-4.59552e-07
-4.16698e-07
-3.76277e-07
-3.38101e-07
-3.02001e-07
-2.67824e-07
-2.35423e-07
-2.04649e-07
-1.75346e-07
-1.47344e-07
-1.20451e-07
-9.44524e-08
-6.91387e-08
-4.4108e-08
-2.11892e-08
2.85219e-05
2.85143e-05
2.84943e-05
2.84612e-05
2.84134e-05
2.83471e-05
2.82571e-05
2.81364e-05
2.79759e-05
2.77634e-05
2.7483e-05
2.71143e-05
2.66312e-05
2.60006e-05
2.51817e-05
2.41245e-05
2.27701e-05
2.10507e-05
1.88927e-05
1.62214e-05
1.29705e-05
9.09507e-06
4.59008e-06
-4.87428e-07
-5.99646e-06
-1.16967e-05
-1.72495e-05
-2.22462e-05
-2.62683e-05
-2.89741e-05
-3.01849e-05
-2.99356e-05
-2.84598e-05
-2.61145e-05
-2.32819e-05
-2.02903e-05
-1.73785e-05
-1.4695e-05
-1.23165e-05
-1.02683e-05
-8.54259e-06
-7.11201e-06
-5.93996e-06
-4.98731e-06
-4.21657e-06
-3.59404e-06
-3.09071e-06
-2.68229e-06
-2.34896e-06
-2.07474e-06
-1.847e-06
-1.65577e-06
-1.4933e-06
-1.35357e-06
-1.23194e-06
-1.12482e-06
-1.02944e-06
-9.43667e-07
-8.65854e-07
-7.94719e-07
-7.2926e-07
-6.6869e-07
-6.12384e-07
-5.59842e-07
-5.10657e-07
-4.64497e-07
-4.21083e-07
-3.80178e-07
-3.41579e-07
-3.05103e-07
-2.70585e-07
-2.37868e-07
-2.06793e-07
-1.772e-07
-1.4891e-07
-1.21732e-07
-9.54495e-08
-6.98549e-08
-4.45489e-08
-2.13853e-08
2.84901e-05
2.84814e-05
2.84583e-05
2.84204e-05
2.8366e-05
2.8291e-05
2.81902e-05
2.80561e-05
2.78794e-05
2.76476e-05
2.73448e-05
2.69503e-05
2.64381e-05
2.57756e-05
2.49228e-05
2.38313e-05
2.24442e-05
2.06973e-05
1.85214e-05
1.58477e-05
1.26165e-05
8.79012e-06
4.37016e-06
-5.82324e-07
-5.92721e-06
-1.14324e-05
-1.67769e-05
-2.15778e-05
-2.54474e-05
-2.80708e-05
-2.92838e-05
-2.91172e-05
-2.77829e-05
-2.56081e-05
-2.29464e-05
-2.01066e-05
-1.73175e-05
-1.4726e-05
-1.24109e-05
-1.04023e-05
-8.69734e-06
-7.27373e-06
-6.09906e-06
-5.13762e-06
-4.35451e-06
-3.71793e-06
-3.20015e-06
-2.77774e-06
-2.43137e-06
-2.14536e-06
-1.90714e-06
-1.70678e-06
-1.53644e-06
-1.39e-06
-1.26268e-06
-1.15077e-06
-1.05138e-06
-9.6227e-07
-8.81677e-07
-8.08233e-07
-7.40856e-07
-6.78692e-07
-6.2106e-07
-5.6741e-07
-5.17297e-07
-4.70352e-07
-4.26269e-07
-3.84789e-07
-3.45687e-07
-3.08766e-07
-2.73845e-07
-2.40754e-07
-2.09327e-07
-1.79392e-07
-1.50769e-07
-1.23259e-07
-9.66475e-08
-7.07288e-08
-4.51044e-08
-2.16505e-08
2.84529e-05
2.84429e-05
2.84163e-05
2.8373e-05
2.83109e-05
2.82261e-05
2.81128e-05
2.79635e-05
2.77683e-05
2.75146e-05
2.71862e-05
2.67625e-05
2.62175e-05
2.55191e-05
2.46284e-05
2.34986e-05
2.20757e-05
2.0299e-05
1.81046e-05
1.543e-05
1.22229e-05
8.45359e-06
4.1304e-06
-6.81684e-07
-5.84412e-06
-1.11345e-05
-1.62511e-05
-2.08393e-05
-2.45437e-05
-2.70779e-05
-2.82927e-05
-2.82142e-05
-2.70321e-05
-2.50417e-05
-2.25665e-05
-1.98939e-05
-1.72416e-05
-1.47535e-05
-1.25107e-05
-1.05479e-05
-8.86776e-06
-7.45324e-06
-6.27665e-06
-5.30609e-06
-4.50963e-06
-3.85761e-06
-3.32379e-06
-2.88574e-06
-2.52474e-06
-2.22542e-06
-1.97537e-06
-1.76465e-06
-1.58537e-06
-1.43128e-06
-1.29749e-06
-1.18013e-06
-1.07617e-06
-9.83244e-07
-8.99478e-07
-8.23398e-07
-7.53833e-07
-6.89853e-07
-6.30709e-07
-5.75799e-07
-5.24629e-07
-4.76794e-07
-4.31956e-07
-3.89827e-07
-3.5016e-07
-3.12739e-07
-2.77368e-07
-2.43862e-07
-2.12044e-07
-1.81734e-07
-1.52743e-07
-1.2487e-07
-9.79008e-08
-7.16304e-08
-4.56627e-08
-2.19022e-08
2.84114e-05
2.83999e-05
2.83696e-05
2.83201e-05
2.82498e-05
2.81541e-05
2.80271e-05
2.7861e-05
2.76456e-05
2.7368e-05
2.70118e-05
2.65562e-05
2.59757e-05
2.52386e-05
2.43072e-05
2.31368e-05
2.1676e-05
1.98687e-05
1.76562e-05
1.49829e-05
1.18044e-05
8.0988e-06
3.88144e-06
-7.79265e-07
-5.74714e-06
-1.08106e-05
-1.56883e-05
-2.0055e-05
-2.35882e-05
-2.60298e-05
-2.72456e-05
-2.72569e-05
-2.62312e-05
-2.4432e-05
-2.21521e-05
-1.96564e-05
-1.71504e-05
-1.47742e-05
-1.26108e-05
-1.06991e-05
-9.04738e-06
-7.6442e-06
-6.46678e-06
-5.48736e-06
-4.67716e-06
-4.00892e-06
-3.45805e-06
-3.00325e-06
-2.62647e-06
-2.31276e-06
-2.04987e-06
-1.82789e-06
-1.63886e-06
-1.47643e-06
-1.33555e-06
-1.21222e-06
-1.10326e-06
-1.00616e-06
-9.18919e-07
-8.3995e-07
-7.67988e-07
-7.02017e-07
-6.41218e-07
-5.84928e-07
-5.32603e-07
-4.83796e-07
-4.38131e-07
-3.95294e-07
-3.55012e-07
-3.17047e-07
-2.81186e-07
-2.4723e-07
-2.14989e-07
-1.84273e-07
-1.54887e-07
-1.26626e-07
-9.92732e-08
-7.26277e-08
-4.62931e-08
-2.21993e-08
2.83666e-05
2.83536e-05
2.83192e-05
2.82633e-05
2.81841e-05
2.80769e-05
2.79354e-05
2.77514e-05
2.75146e-05
2.72118e-05
2.68262e-05
2.63372e-05
2.57193e-05
2.4942e-05
2.39684e-05
2.27562e-05
2.12572e-05
1.94195e-05
1.71902e-05
1.45208e-05
1.13748e-05
7.73819e-06
3.63278e-06
-8.70089e-07
-5.63741e-06
-1.04691e-05
-1.5105e-05
-1.92487e-05
-2.26102e-05
-2.4959e-05
-2.61747e-05
-2.62744e-05
-2.5404e-05
-2.37964e-05
-2.17142e-05
-1.93994e-05
-1.70448e-05
-1.47859e-05
-1.27066e-05
-1.08502e-05
-9.23008e-06
-7.84045e-06
-6.66359e-06
-5.67599e-06
-4.85223e-06
-4.16755e-06
-3.59919e-06
-3.12704e-06
-2.73383e-06
-2.40505e-06
-2.12866e-06
-1.89481e-06
-1.69549e-06
-1.52423e-06
-1.37585e-06
-1.24618e-06
-1.13191e-06
-1.03037e-06
-9.39426e-07
-8.57385e-07
-7.82872e-07
-7.14783e-07
-6.52224e-07
-5.94468e-07
-5.40916e-07
-4.91077e-07
-4.44537e-07
-4.00951e-07
-3.60019e-07
-3.21482e-07
-2.85106e-07