# Moment      
# CofR        : (0.000000e+00 0.000000e+00 0.000000e+00)
#
# Time        	total_x total_y total_z	pressure_x pressure_y pressure_z	viscous_x viscous_y viscous_z
1              -7.956656e-05 2.134188e-04 2.920601e-02 -7.944340e-05 2.140299e-04 2.911410e-02 -1.231679e-07 -6.110535e-07 9.190812e-05
2              -8.959105e-05 1.438511e-04 3.607529e-02 -8.974407e-05 1.459025e-04 3.602487e-02 1.530204e-07 -2.051459e-06 5.042665e-05
3              -8.143321e-05 2.497064e-04 3.283553e-02 -8.184981e-05 2.526087e-04 3.282373e-02 4.166004e-07 -2.902340e-06 1.179198e-05
4              -5.308895e-05 3.888745e-04 2.364922e-02 -5.365293e-05 3.923238e-04 2.366781e-02 5.639757e-07 -3.449295e-06 -1.858996e-05
5              -2.079038e-05 4.867297e-04 1.290148e-02 -2.136152e-05 4.902204e-04 1.293821e-02 5.711340e-07 -3.490693e-06 -3.673160e-05
6              8.775163e-06 4.742645e-04 3.449591e-03 8.296016e-06 4.774041e-04 3.492449e-03 4.791469e-07 -3.139574e-06 -4.285764e-05
7              3.099732e-05 3.498559e-04 -3.044362e-03 3.067634e-05 3.525915e-04 -3.002909e-03 3.209867e-07 -2.735657e-06 -4.145301e-05
8              3.969783e-05 2.520843e-04 -5.852627e-03 3.953545e-05 2.542366e-04 -5.816832e-03 1.623878e-07 -2.152326e-06 -3.579577e-05
9              4.125442e-05 8.374231e-05 -5.936497e-03 4.122094e-05 8.553491e-05 -5.907750e-03 3.348799e-08 -1.792600e-06 -2.874756e-05
10             3.758740e-05 -1.060614e-04 -4.304464e-03 3.762944e-05 -1.041545e-04 -4.282788e-03 -4.204742e-08 -1.906899e-06 -2.167649e-05
11             2.961999e-05 -2.556879e-04 -1.772664e-03 2.968047e-05 -2.533383e-04 -1.757348e-03 -6.048153e-08 -2.349562e-06 -1.531683e-05
12             1.903562e-05 -3.021811e-04 8.224283e-04 1.905508e-05 -2.996034e-04 8.322192e-04 -1.946019e-08 -2.577671e-06 -9.790912e-06
13             7.666668e-06 -2.385407e-04 2.874258e-03 7.610135e-06 -2.359516e-04 2.879571e-03 5.653321e-08 -2.589097e-06 -5.312664e-06
14             -2.276162e-06 -8.177281e-05 4.084549e-03 -2.419720e-06 -7.944403e-05 4.088290e-03 1.435576e-07 -2.328787e-06 -3.740119e-06
15             -9.108802e-06 1.102201e-04 4.448583e-03 -9.329979e-06 1.122192e-04 4.452475e-03 2.211766e-07 -1.999090e-06 -3.892304e-06
16             -1.231231e-05 2.907247e-04 4.193188e-03 -1.259236e-05 2.923440e-04 4.198120e-03 2.800577e-07 -1.619367e-06 -4.932122e-06
17             -1.253835e-05 4.464698e-04 3.567771e-03 -1.285041e-05 4.477949e-04 3.574110e-03 3.120630e-07 -1.325091e-06 -6.338972e-06
18             -9.973200e-06 5.554918e-04 2.798705e-03 -1.029799e-05 5.564550e-04 2.806404e-03 3.247860e-07 -9.632137e-07 -7.699235e-06
19             -5.170678e-06 6.020819e-04 2.089994e-03 -5.472927e-06 6.031564e-04 2.098519e-03 3.022489e-07 -1.074499e-06 -8.524477e-06
20             7.872015e-07 5.866162e-04 1.573073e-03 5.048627e-07 5.876150e-04 1.582038e-03 2.823388e-07 -9.987617e-07 -8.965148e-06
21             6.575512e-06 5.246535e-04 1.290165e-03 6.323140e-06 5.257830e-04 1.298821e-03 2.523718e-07 -1.129484e-06 -8.656545e-06
22             1.117077e-05 4.386135e-04 1.208065e-03 1.093860e-05 4.397934e-04 1.215924e-03 2.321676e-07 -1.179901e-06 -7.859662e-06
23             1.436785e-05 3.417497e-04 1.261379e-03 1.415206e-05 3.430859e-04 1.267951e-03 2.157900e-07 -1.336258e-06 -6.572056e-06
24             1.600140e-05 2.458144e-04 1.389207e-03 1.579282e-05 2.472454e-04 1.394161e-03 2.085717e-07 -1.431035e-06 -4.954539e-06
25             1.591667e-05 1.666197e-04 1.530618e-03 1.571083e-05 1.681912e-04 1.533627e-03 2.058332e-07 -1.571531e-06 -3.008537e-06
26             1.436525e-05 1.161717e-04 1.638053e-03 1.415513e-05 1.178225e-04 1.639015e-03 2.101194e-07 -1.650893e-06 -9.617145e-07
27             1.195118e-05 9.864603e-05 1.687967e-03 1.173392e-05 1.003187e-04 1.686812e-03 2.172601e-07 -1.672621e-06 1.154358e-06
28             9.403313e-06 1.102862e-04 1.680533e-03 9.177866e-06 1.119494e-04 1.677340e-03 2.254464e-07 -1.663242e-06 3.193226e-06
29             7.262066e-06 1.425117e-04 1.630899e-03 7.029347e-06 1.441465e-04 1.625768e-03 2.327183e-07 -1.634782e-06 5.130959e-06
30             5.720768e-06 1.876069e-04 1.554431e-03 5.482505e-06 1.891919e-04 1.547502e-03 2.382630e-07 -1.585069e-06 6.929084e-06
31             4.880850e-06 2.390825e-04 1.465159e-03 4.639012e-06 2.406019e-04 1.456551e-03 2.418381e-07 -1.519356e-06 8.608113e-06
32             4.795790e-06 2.892060e-04 1.378156e-03 4.552101e-06 2.906612e-04 1.367965e-03 2.436887e-07 -1.455106e-06 1.019119e-05
33             5.372413e-06 3.305512e-04 1.305249e-03 5.128338e-06 3.319439e-04 1.293534e-03 2.440753e-07 -1.392682e-06 1.171544e-05
34             6.384640e-06 3.581452e-04 1.251912e-03 6.140938e-06 3.594816e-04 1.238696e-03 2.437021e-07 -1.336377e-06 1.321591e-05
35             7.559236e-06 3.702149e-04 1.217634e-03 7.315791e-06 3.715033e-04 1.202911e-03 2.434442e-07 -1.288388e-06 1.472297e-05
36             8.650311e-06 3.675971e-04 1.198228e-03 8.406369e-06 3.688438e-04 1.182002e-03 2.439412e-07 -1.246712e-06 1.622606e-05
37             9.466464e-06 3.530043e-04 1.188026e-03 9.222055e-06 3.542247e-04 1.170312e-03 2.444087e-07 -1.220455e-06 1.771389e-05
38             9.896234e-06 3.306671e-04 1.181307e-03 9.650708e-06 3.318589e-04 1.162149e-03 2.455267e-07 -1.191759e-06 1.915812e-05
39             9.922826e-06 3.054962e-04 1.173491e-03 9.677062e-06 3.066815e-04 1.152967e-03 2.457635e-07 -1.185282e-06 2.052415e-05
40             9.618579e-06 2.820518e-04 1.161821e-03 9.371561e-06 2.832076e-04 1.140048e-03 2.470181e-07 -1.155833e-06 2.177226e-05
41             9.102133e-06 2.634865e-04 1.145401e-03 8.855641e-06 2.646499e-04 1.122514e-03 2.464916e-07 -1.163425e-06 2.288676e-05
42             8.505405e-06 2.513812e-04 1.124564e-03 8.257249e-06 2.525062e-04 1.100717e-03 2.481565e-07 -1.125067e-06 2.384743e-05
43             7.930064e-06 2.456815e-04 1.100343e-03 7.683538e-06 2.468408e-04 1.075672e-03 2.465269e-07 -1.159299e-06 2.467107e-05
44             7.457862e-06 2.455656e-04 1.074181e-03 7.208696e-06 2.466676e-04 1.048818e-03 2.491657e-07 -1.101992e-06 2.536278e-05
45             7.124950e-06 2.491651e-04 1.048116e-03 6.877927e-06 2.503090e-04 1.022166e-03 2.470223e-07 -1.143903e-06 2.595087e-05
46             6.943401e-06 2.544294e-04 1.024070e-03 6.694581e-06 2.555304e-04 9.976389e-04 2.488194e-07 -1.100958e-06 2.643135e-05
47             6.877771e-06 2.592283e-04 1.003039e-03 6.629729e-06 2.603414e-04 9.761933e-04 2.480424e-07 -1.113039e-06 2.684587e-05
48             6.882162e-06 2.622542e-04 9.842774e-04 6.632452e-06 2.633291e-04 9.571059e-04 2.497094e-07 -1.074847e-06 2.717152e-05
49             6.913505e-06 2.629030e-04 9.677459e-04 6.663923e-06 2.639708e-04 9.402785e-04 2.495816e-07 -1.067843e-06 2.746747e-05
50             6.942272e-06 2.611515e-04 9.530076e-04 6.691630e-06 2.621897e-04 9.253162e-04 2.506421e-07 -1.038205e-06 2.769134e-05
51             6.939891e-06 2.572646e-04 9.385190e-04 6.689802e-06 2.583032e-04 9.107490e-04 2.500896e-07 -1.038593e-06 2.777005e-05
52             6.898217e-06 2.516798e-04 9.245847e-04 6.646769e-06 2.526836e-04 8.967756e-04 2.514488e-07 -1.003748e-06 2.780904e-05
53             6.809533e-06 2.448854e-04 9.116013e-04 6.558574e-06 2.458901e-04 8.837560e-04 2.509595e-07 -1.004720e-06 2.784532e-05
54             6.679735e-06 2.376691e-04 8.999183e-04 6.427918e-06 2.386500e-04 8.721233e-04 2.518175e-07 -9.809150e-07 2.779500e-05
55             6.518669e-06 2.308024e-04 8.896557e-04 6.267459e-06 2.317877e-04 8.619252e-04 2.512095e-07 -9.852931e-07 2.773050e-05
56             6.343106e-06 2.248729e-04 8.818630e-04 6.090776e-06 2.258322e-04 8.541755e-04 2.523299e-07 -9.592500e-07 2.768752e-05
57             6.162495e-06 2.199448e-04 8.756315e-04 5.910776e-06 2.209126e-04 8.480286e-04 2.517196e-07 -9.678016e-07 2.760291e-05
58             5.987650e-06 2.159541e-04 8.701616e-04 5.735349e-06 2.169109e-04 8.427241e-04 2.523017e-07 -9.567840e-07 2.743748e-05
59             5.822745e-06 2.126024e-04 8.640806e-04 5.571022e-06 2.135682e-04 8.368941e-04 2.517230e-07 -9.657559e-07 2.718657e-05
60             5.672662e-06 2.097360e-04 8.577183e-04 5.420220e-06 2.106880e-04 8.308324e-04 2.524412e-07 -9.519866e-07 2.688583e-05
61             5.537239e-06 2.072288e-04 8.524765e-04 5.285242e-06 2.081876e-04 8.258491e-04 2.519978e-07 -9.588443e-07 2.662738e-05
62             5.416148e-06 2.048802e-04 8.481542e-04 5.163742e-06 2.058374e-04 8.218417e-04 2.524061e-07 -9.572416e-07 2.631248e-05
63             5.306170e-06 2.025195e-04 8.446661e-04 5.053829e-06 2.034819e-04 8.186691e-04 2.523408e-07 -9.624248e-07 2.599697e-05
64             5.204122e-06 1.999848e-04 8.423707e-04 4.951245e-06 2.009473e-04 8.167368e-04 2.528768e-07 -9.625423e-07 2.563395e-05
65             5.107195e-06 1.972475e-04 8.408762e-04 4.854287e-06 1.982164e-04 8.155948e-04 2.529086e-07 -9.689055e-07 2.528138e-05
66             5.013451e-06 1.943428e-04 8.396910e-04 4.760070e-06 1.953126e-04 8.148107e-04 2.533815e-07 -9.698086e-07 2.488027e-05
67             4.921840e-06 1.913667e-04 8.385495e-04 4.668302e-06 1.923387e-04 8.140476e-04 2.535375e-07 -9.719710e-07 2.450187e-05
68             4.830953e-06 1.883763e-04 8.371688e-04 4.576717e-06 1.893445e-04 8.130870e-04 2.542358e-07 -9.682632e-07 2.408183e-05
69             4.739866e-06 1.854338e-04 8.355198e-04 4.485743e-06 1.864097e-04 8.118252e-04 2.541234e-07 -9.759173e-07 2.369461e-05
70             4.648553e-06 1.825705e-04 8.335381e-04 4.393501e-06 1.835368e-04 8.102689e-04 2.550521e-07 -9.662980e-07 2.326921e-05
71             4.556489e-06 1.798032e-04 8.313523e-04 4.301726e-06 1.807809e-04 8.084672e-04 2.547634e-07 -9.776547e-07 2.288514e-05
72             4.465542e-06 1.771650e-04 8.290009e-04 4.209347e-06 1.781208e-04 8.065386e-04 2.561955e-07 -9.557478e-07 2.246229e-05
73             4.374846e-06 1.746307e-04 8.266375e-04 4.119372e-06 1.756067e-04 8.045491e-04 2.554740e-07 -9.759602e-07 2.208840e-05
74             4.287800e-06 1.722443e-04 8.243106e-04 4.030518e-06 1.731921e-04 8.026193e-04 2.572824e-07 -9.477944e-07 2.169125e-05
75             4.202599e-06 1.699532e-04 8.220699e-04 3.945760e-06 1.709154e-04 8.007486e-04 2.568391e-07 -9.622204e-07 2.132126e-05
76             4.120860e-06 1.677598e-04 8.199483e-04 3.863302e-06 1.687197e-04 7.989963e-04 2.575579e-07 -9.598289e-07 2.095198e-05
77             4.043859e-06 1.656971e-04 8.179239e-04 3.785539e-06 1.666441e-04 7.973324e-04 2.583203e-07 -9.469713e-07 2.059147e-05
78             3.968471e-06 1.636712e-04 8.160207e-04 3.710114e-06 1.646321e-04 7.957685e-04 2.583572e-07 -9.608262e-07 2.025220e-05
79             3.898661e-06 1.617883e-04 8.141842e-04 3.639169e-06 1.627291e-04 7.942730e-04 2.594920e-07 -9.408170e-07 1.991121e-05
80             3.829341e-06 1.599186e-04 8.124505e-04 3.569887e-06 1.608754e-04 7.928516e-04 2.594539e-07 -9.567941e-07 1.959886e-05
81             3.764714e-06 1.581779e-04 8.107615e-04 3.503907e-06 1.591102e-04 7.914823e-04 2.608062e-07 -9.323853e-07 1.927916e-05
82             3.699093e-06 1.564243e-04 8.091694e-04 3.438231e-06 1.573698e-04 7.901795e-04 2.608619e-07 -9.454555e-07 1.898990e-05
83             3.636959e-06 1.547752e-04 8.076326e-04 3.374746e-06 1.556969e-04 7.889405e-04 2.622136e-07 -9.216310e-07 1.869212e-05
84             3.573076e-06 1.530983e-04 8.062235e-04 3.310879e-06 1.540334e-04 7.877920e-04 2.621970e-07 -9.350964e-07 1.843151e-05
85             3.512342e-06 1.515170e-04 8.049042e-04 3.249007e-06 1.524311e-04 7.867492e-04 2.633341e-07 -9.141877e-07 1.815508e-05
86             3.449863e-06 1.499024e-04 8.037697e-04 3.186463e-06 1.508282e-04 7.858510e-04 2.634000e-07 -9.257987e-07 1.791869e-05
87             3.390493e-06 1.483770e-04 8.027790e-04 3.125971e-06 1.492836e-04 7.851173e-04 2.645220e-07 -9.066203e-07 1.766173e-05
88             3.329451e-06 1.468164e-04 8.020251e-04 3.064886e-06 1.477337e-04 7.845758e-04 2.645659e-07 -9.173252e-07 1.744922e-05
89             3.271642e-06 1.453412e-04 8.014448e-04 3.006088e-06 1.462428e-04 7.842356e-04 2.655544e-07 -9.015526e-07 1.720913e-05
90             3.212398e-06 1.438340e-04 8.011253e-04 2.946738e-06 1.447448e-04 7.841100e-04 2.656595e-07 -9.107663e-07 1.701528e-05
91             3.156377e-06 1.424117e-04 8.009880e-04 2.889803e-06 1.433083e-04 7.841986e-04 2.665735e-07 -8.965835e-07 1.678943e-05
92             3.099008e-06 1.409624e-04 8.011173e-04 2.832284e-06 1.418671e-04 7.845016e-04 2.667234e-07 -9.046458e-07 1.661566e-05
93             3.044526e-06 1.395956e-04 8.014162e-04 2.777367e-06 1.404938e-04 7.850038e-04 2.671596e-07 -8.981858e-07 1.641249e-05
94             2.988950e-06 1.382106e-04 8.019676e-04 2.722204e-06 1.391237e-04 7.856898e-04 2.667466e-07 -9.130836e-07 1.627785e-05
95             2.937104e-06 1.369197e-04 8.026650e-04 2.670081e-06 1.378302e-04 7.865575e-04 2.670237e-07 -9.105343e-07 1.610743e-05
96             2.884956e-06 1.356273e-04 8.036017e-04 2.618125e-06 1.365489e-04 7.876018e-04 2.668310e-07 -9.215324e-07 1.599990e-05
97             2.836814e-06 1.344318e-04 8.046785e-04 2.569349e-06 1.353473e-04 7.888237e-04 2.674645e-07 -9.154979e-07 1.585479e-05
98             2.788226e-06 1.332366e-04 8.059897e-04 2.520707e-06 1.341589e-04 7.902148e-04 2.675199e-07 -9.222735e-07 1.577492e-05
99             2.743421e-06 1.321339e-04 8.074213e-04 2.475243e-06 1.330500e-04 7.917689e-04 2.681779e-07 -9.160875e-07 1.565241e-05
100            2.698347e-06 1.310355e-04 8.090525e-04 2.430211e-06 1.319592e-04 7.934608e-04 2.681355e-07 -9.237079e-07 1.559166e-05
101            2.657545e-06 1.300347e-04 8.107692e-04 2.388673e-06 1.309503e-04 7.952785e-04 2.688722e-07 -9.156752e-07 1.549074e-05
102            2.616942e-06 1.290446e-04 8.126410e-04 2.348187e-06 1.299693e-04 7.971925e-04 2.687550e-07 -9.246244e-07 1.544849e-05
103            2.581188e-06 1.281612e-04 8.145611e-04 2.311516e-06 1.290736e-04 7.991961e-04 2.696721e-07 -9.124279e-07 1.536499e-05
104            2.545794e-06 1.272909e-04 8.166013e-04 2.276372e-06 1.282154e-04 8.012661e-04 2.694219e-07 -9.244424e-07 1.533516e-05
105            2.515656e-06 1.265371e-04 8.186674e-04 2.245182e-06 1.274452e-04 8.034016e-04 2.704735e-07 -9.081429e-07 1.526574e-05
106            2.485804e-06 1.257935e-04 8.208319e-04 2.215735e-06 1.267160e-04 8.055886e-04 2.700692e-07 -9.225030e-07 1.524330e-05
107            2.461403e-06 1.251699e-04 8.230107e-04 2.190204e-06 1.260735e-04 8.078272e-04 2.711996e-07 -9.036374e-07 1.518350e-05
108            2.437025e-06 1.245510e-04 8.252692e-04 2.166429e-06 1.254737e-04 8.101004e-04 2.705959e-07 -9.226521e-07 1.516880e-05
109            2.417905e-06 1.240506e-04 8.275253e-04 2.146114e-06 1.249508e-04 8.124057e-04 2.717911e-07 -9.002241e-07 1.511960e-05
110            2.398018e-06 1.235379e-04 8.298358e-04 2.126986e-06 1.244603e-04 8.147245e-04 2.710316e-07 -9.223868e-07 1.511131e-05
111            2.382863e-06 1.231358e-04 8.321265e-04 2.110539e-06 1.240326e-04 8.170551e-04 2.723239e-07 -8.967568e-07 1.507145e-05
112            2.366213e-06 1.227065e-04 8.344545e-04 2.094733e-06 1.236271e-04 8.193866e-04 2.714800e-07 -9.206322e-07 1.506794e-05
113            2.354766e-06 1.224013e-04 8.367011e-04 2.081941e-06 1.232940e-04 8.216597e-04 2.728256e-07 -8.926193e-07 1.504146e-05
114            2.341817e-06 1.220689e-04 8.389418e-04 2.069884e-06 1.229863e-04 8.238967e-04 2.719324e-07 -9.174530e-07 1.504509e-05
115            2.332782e-06 1.218346e-04 8.411343e-04 2.059475e-06 1.227223e-04 8.261154e-04 2.733071e-07 -8.876652e-07 1.501892e-05
116            2.321060e-06 1.215467e-04 8.433476e-04 2.048654e-06 1.224594e-04 8.283266e-04 2.724061e-07 -9.127532e-07 1.502104e-05
117            2.312297e-06 1.213364e-04 8.455270e-04 2.038515e-06 1.222185e-04 8.305293e-04 2.737827e-07 -8.821561e-07 1.499767e-05
118            2.300189e-06 1.210561e-04 8.477217e-04 2.027295e-06 1.219633e-04 8.327189e-04 2.728945e-07 -9.072250e-07 1.500281e-05
119            2.290440e-06 1.208396e-04 8.498642e-04 2.016187e-06 1.217160e-04 8.348798e-04 2.742537e-07 -8.764123e-07 1.498439e-05
120            2.277117e-06 1.205457e-04 8.520024e-04 2.003716e-06 1.214465e-04 8.370077e-04 2.734012e-07 -9.007380e-07 1.499464e-05
121            2.265843e-06 1.203074e-04 8.540694e-04 1.991135e-06 1.211782e-04 8.390880e-04 2.747082e-07 -8.707589e-07 1.498137e-05
122            2.251057e-06 1.199908e-04 8.561189e-04 1.977124e-06 1.208843e-04 8.411207e-04 2.739329e-07 -8.934781e-07 1.499820e-05
123            2.238121e-06 1.197237e-04 8.580865e-04 1.962937e-06 1.205885e-04 8.430955e-04 2.751845e-07 -8.647865e-07 1.499100e-05
124            2.220762e-06 1.193622e-04 8.601589e-04 1.946232e-06 1.202473e-04 8.451443e-04 2.745297e-07 -8.851036e-07 1.501455e-05
125            2.205768e-06 1.190533e-04 8.619892e-04 1.930063e-06 1.199116e-04 8.469806e-04 2.757052e-07 -8.582943e-07 1.500860e-05
126            2.187295e-06 1.186647e-04 8.638612e-04 1.912147e-06 1.195407e-04 8.488248e-04 2.751484e-07 -8.760148e-07 1.503639e-05
127            2.170019e-06 1.183103e-04 8.657050e-04 1.893817e-06 1.191620e-04 8.506681e-04 2.762022e-07 -8.516919e-07 1.503687e-05
128            2.149904e-06 1.178910e-04 8.675808e-04 1.874140e-06 1.187576e-04 8.525090e-04 2.757637e-07 -8.665422e-07 1.507177e-05
129            2.130979e-06 1.175044e-04 8.694118e-04 1.854309e-06 1.183497e-04 8.543353e-04 2.766700e-07 -8.453122e-07 1.507649e-05
130            2.109739e-06 1.170633e-04 8.712636e-04 1.833385e-06 1.179206e-04 8.561472e-04 2.763538e-07 -8.573548e-07 1.511632e-05
131            2.089565e-06 1.166498e-04 8.730553e-04 1.812448e-06 1.174890e-04 8.579330e-04 2.771170e-07 -8.392070e-07 1.512229e-05
132            2.065886e-06 1.161440e-04 8.749698e-04 1.788962e-06 1.169923e-04 8.598050e-04 2.769238e-07 -8.483220e-07 1.516482e-05
133            2.044613e-06 1.156949e-04 8.766408e-04 1.767109e-06 1.165293e-04 8.614689e-04 2.775039e-07 -8.344007e-07 1.517187e-05
134            2.024409e-06 1.152759e-04 8.781653e-04 1.746971e-06 1.161162e-04 8.629500e-04 2.774381e-07 -8.403560e-07 1.521525e-05
135            2.005322e-06 1.148820e-04 8.796093e-04 1.727547e-06 1.157137e-04 8.643949e-04 2.777749e-07 -8.316946e-07 1.521448e-05
136            1.986145e-06 1.144820e-04 8.810678e-04 1.708365e-06 1.153177e-04 8.658149e-04 2.777793e-07 -8.356262e-07 1.525293e-05
137            1.967959e-06 1.141036e-04 8.824475e-04 1.690271e-06 1.149415e-04 8.672054e-04 2.776879e-07 -8.378918e-07 1.524210e-05
138            1.949336e-06 1.137140e-04 8.838474e-04 1.670674e-06 1.145332e-04 8.685604e-04 2.786615e-07 -8.192760e-07 1.528695e-05
139            1.930306e-06 1.133178e-04 8.851688e-04 1.652508e-06 1.141555e-04 8.698894e-04 2.777985e-07 -8.377572e-07 1.527941e-05
140            1.911914e-06 1.129342e-04 8.865048e-04 1.632987e-06 1.137498e-04 8.711802e-04 2.789269e-07 -8.156850e-07 1.532457e-05
141            1.892800e-06 1.125371e-04 8.877675e-04 1.614847e-06 1.133733e-04 8.724479e-04 2.779537e-07 -8.361898e-07 1.531962e-05
142            1.874933e-06 1.121656e-04 8.890430e-04 1.595838e-06 1.129802e-04 8.736794e-04 2.790946e-07 -8.145463e-07 1.536363e-05
143            1.856281e-06 1.117805e-04 8.902527e-04 1.577857e-06 1.126077e-04 8.748893e-04 2.784233e-07 -8.272820e-07 1.536334e-05
144            1.838614e-06 1.114138e-04 8.914696e-04 1.559474e-06 1.122300e-04 8.760662e-04 2.791396e-07 -8.161839e-07 1.540338e-05
145            1.820249e-06 1.110370e-04 8.926290e-04 1.541585e-06 1.118603e-04 8.772214e-04 2.786636e-07 -8.233934e-07 1.540754e-05
146            1.803094e-06 1.106822e-04 8.937900e-04 1.523860e-06 1.114986e-04 8.783463e-04 2.792339e-07 -8.164793e-07 1.544370e-05
147            1.785111e-06 1.103157e-04 8.948978e-04 1.505977e-06 1.111302e-04 8.794474e-04 2.791337e-07 -8.144604e-07 1.545040e-05
148            1.766336e-06 1.099142e-04 8.960762e-04 1.487120e-06 1.107334e-04 8.805942e-04 2.792153e-07 -8.191844e-07 1.548201e-05
149            1.749591e-06 1.095797e-04 8.970774e-04 1.469685e-06 1.103784e-04 8.815847e-04 2.799060e-07 -7.987192e-07 1.549276e-05
150            1.731501e-06 1.092063e-04 8.981100e-04 1.452471e-06 1.100318e-04 8.825921e-04 2.790297e-07 -8.254201e-07 1.551785e-05
151            1.714725e-06 1.088712e-04 8.991326e-04 1.433861e-06 1.096498e-04 8.835996e-04 2.808638e-07 -7.785592e-07 1.553302e-05
152            1.694470e-06 1.084471e-04 9.001651e-04 1.415854e-06 1.092836e-04 8.846124e-04 2.786165e-07 -8.364975e-07 1.555276e-05
153            1.678162e-06 1.081205e-04 9.011784e-04 1.396691e-06 1.088867e-04 8.856046e-04 2.814715e-07 -7.662228e-07 1.557379e-05
154            1.657309e-06 1.076795e-04 9.021856e-04 1.378146e-06 1.085045e-04 8.865903e-04 2.791625e-07 -8.249456e-07 1.559525e-05
155            1.640473e-06 1.073362e-04 9.031576e-04 1.358890e-06 1.081014e-04 8.875458e-04 2.815827e-07 -7.651626e-07 1.561179e-05
156            1.619825e-06 1.068952e-04 9.041190e-04 1.340236e-06 1.077112e-04 8.884839e-04 2.795887e-07 -8.160305e-07 1.563517e-05
157            1.602883e-06 1.065436e-04 9.050337e-04 1.321139e-06 1.073066e-04 8.893867e-04 2.817442e-07 -7.629808e-07 1.564697e-05
158            1.583035e-06 1.061161e-04 9.059133e-04 1.303167e-06 1.069263e-04 8.902407e-04 2.798688e-07 -8.102024e-07 1.567260e-05
159            1.566714e-06 1.057728e-04 9.067447e-04 1.284816e-06 1.065338e-04 8.910668e-04 2.818984e-07 -7.609463e-07 1.567789e-05
160            1.546708e-06 1.053371e-04 9.075816e-04 1.266729e-06 1.061452e-04 8.918774e-04 2.799789e-07 -8.080759e-07 1.570421e-05
161            1.529171e-06 1.049485e-04 9.084141e-04 1.247203e-06 1.057091e-04 8.927082e-04 2.819673e-07 -7.605926e-07 1.570596e-05
162            1.510663e-06 1.045457e-04 9.091349e-04 1.230429e-06 1.053486e-04 8.934008e-04 2.802341e-07 -8.029009e-07 1.573414e-05
163            1.497085e-06 1.042574e-04 9.097898e-04 1.215204e-06 1.050210e-04 8.940567e-04 2.818811e-07 -7.635385e-07 1.573308e-05
164            1.479892e-06 1.038793e-04 9.104531e-04 1.199331e-06 1.046753e-04 8.946923e-04 2.805604e-07 -7.960159e-07 1.576081e-05
165            1.466932e-06 1.036000e-04 9.110691e-04 1.185115e-06 1.043657e-04 8.953115e-04 2.818165e-07 -7.657526e-07 1.575759e-05
166            1.450643e-06 1.032383e-04 9.117043e-04 1.169687e-06 1.040255e-04 8.959155e-04 2.809567e-07 -7.872534e-07 1.578873e-05
167            1.437714e-06 1.029538e-04 9.122950e-04 1.156112e-06 1.037248e-04 8.965125e-04 2.816016e-07 -7.709464e-07 1.578243e-05
168            1.422716e-06 1.026170e-04 9.129110e-04 1.141375e-06 1.033957e-04 8.970950e-04 2.813406e-07 -7.787434e-07 1.581598e-05
169            1.409782e-06 1.023286e-04 9.134805e-04 1.128452e-06 1.031064e-04 8.976750e-04 2.813304e-07 -7.777308e-07 1.580551e-05
170            1.396325e-06 1.020250e-04 9.140815e-04 1.114648e-06 1.027963e-04 8.982382e-04 2.816767e-07 -7.713873e-07 1.584334e-05
171            1.383266e-06 1.017330e-04 9.146268e-04 1.102407e-06 1.025223e-04 8.987989e-04 2.808590e-07 -7.893776e-07 1.582793e-05
172            1.371465e-06 1.014657e-04 9.152099e-04 1.089591e-06 1.022330e-04 8.993403e-04 2.818739e-07 -7.673474e-07 1.586966e-05
173            1.359110e-06 1.011879e-04 9.157313e-04 1.077890e-06 1.019697e-04 8.998787e-04 2.812203e-07 -7.818253e-07 1.585264e-05
174            1.347816e-06 1.009327e-04 9.162903e-04 1.066126e-06 1.017053e-04 9.003978e-04 2.816893e-07 -7.726295e-07 1.589243e-05
175            1.336474e-06 1.006768e-04 9.167868e-04 1.055103e-06 1.014557e-04 9.009119e-04 2.813710e-07 -7.789600e-07 1.587488e-05
176            1.325875e-06 1.004364e-04 9.173158e-04 1.044282e-06 1.012124e-04 9.014047e-04 2.815927e-07 -7.759995e-07 1.591106e-05
177            1.315398e-06 1.002024e-04 9.177868e-04 1.034016e-06 1.009816e-04 9.018905e-04 2.813825e-07 -7.791921e-07 1.589627e-05
178            1.305849e-06 9.998579e-05 9.182846e-04 1.024388e-06 1.007661e-04 9.023565e-04 2.814614e-07 -7.802947e-07 1.592815e-05
179            1.296112e-06 9.976994e-05 9.187275e-04 1.014712e-06 1.005497e-04 9.028143e-04 2.814005e-07 -7.797503e-07 1.591316e-05
180            1.287785e-06 9.958454e-05 9.191999e-04 1.006456e-06 1.003688e-04 9.032540e-04 2.813289e-07 -7.843009e-07 1.594590e-05
181            1.278801e-06 9.938747e-05 9.196123e-04 9.972528e-07 1.001648e-04 9.036828e-04 2.815485e-07 -7.773600e-07 1.592956e-05
182            1.270965e-06 9.921604e-05 9.200602e-04 9.897598e-07 1.000036e-04 9.040952e-04 2.812051e-07 -7.875255e-07 1.596499e-05
183            1.262991e-06 9.904595e-05 9.204471e-04 9.813627e-07 9.982218e-05 9.044989e-04 2.816283e-07 -7.762240e-07 1.594811e-05
184            1.255667e-06 9.888813e-05 9.208681e-04 9.745295e-07 9.967832e-05 9.048881e-04 2.811373e-07 -7.901902e-07 1.597996e-05
185            1.248561e-06 9.874083e-05 9.212344e-04 9.667133e-07 9.951300e-05 9.052699e-04 2.818476e-07 -7.721621e-07 1.596452e-05
186            1.241397e-06 9.858943e-05 9.216327e-04 9.603811e-07 9.938346e-05 9.056383e-04 2.810157e-07 -7.940294e-07 1.599434e-05
