/*--------------------------------*- C++ -*----------------------------------*\
| =========                 |                                                 |
| \\      /  F ield         | OpenFOAM: The Open Source CFD Toolbox           |
|  \\    /   O peration     | Version:  2512                                  |
|   \\  /    A nd           | Website:  www.openfoam.com                      |
|    \\/     M anipulation  |                                                 |
\*---------------------------------------------------------------------------*/
FoamFile
{
    version     2.0;
    format      ascii;
    arch        "LSB;label=32;scalar=64";
    class       volScalarField;
    location    "141";
    object      p;
}
// * * * * * * * * * * * * * * * * * * * * * * * * * * * * * * * * * * * * * //

dimensions      [0 2 -2 0 0 0 0];

internalField   nonuniform List<scalar> 
229904
(
8.52979e-05
8.51574e-05
8.47995e-05
8.42257e-05
8.34276e-05
8.23736e-05
8.10196e-05
7.93126e-05
7.71899e-05
7.45771e-05
7.1388e-05
6.75253e-05
6.28812e-05
5.73405e-05
5.07847e-05
4.30981e-05
3.41776e-05
2.39443e-05
1.23589e-05
-5.60098e-07
-1.47179e-05
-2.99244e-05
-4.58799e-05
-6.21684e-05
-7.82639e-05
-9.35526e-05
-0.000107375
-0.000119083
-0.000128112
-0.000134048
-0.000136682
-0.000136042
-0.000132387
-0.000126161
-0.000117934
-0.000108322
-9.79234e-05
-8.72658e-05
-7.67794e-05
-6.67875e-05
-5.7511e-05
-4.90814e-05
-4.15579e-05
-3.49445e-05
-2.92061e-05
-2.42819e-05
-2.00969e-05
-1.65693e-05
-1.36172e-05
-1.11622e-05
-9.13159e-06
-7.45994e-06
-6.08947e-06
-4.96992e-06
-4.05818e-06
-3.31762e-06
-2.71746e-06
-2.23197e-06
-1.83981e-06
-1.52331e-06
-1.26798e-06
-1.06189e-06
-8.95341e-07
-7.60406e-07
-6.50661e-07
-5.60875e-07
-4.86789e-07
-4.24925e-07
-3.72446e-07
-3.27052e-07
-2.86902e-07
-2.50554e-07
-2.16907e-07
-1.85162e-07
-1.54773e-07
-1.2542e-07
-9.69554e-08
-6.94081e-08
-4.27712e-08
-1.90539e-08
8.53398e-05
8.52005e-05
8.48461e-05
8.42777e-05
8.34869e-05
8.24423e-05
8.11e-05
7.94073e-05
7.73013e-05
7.47078e-05
7.15406e-05
6.77019e-05
6.30835e-05
5.75692e-05
5.10389e-05
4.3375e-05
3.44715e-05
2.42461e-05
1.26557e-05
-2.85574e-07
-1.44867e-05
-2.97608e-05
-4.58091e-05
-6.22142e-05
-7.84447e-05
-9.38776e-05
-0.00010784
-0.000119671
-0.000128789
-0.000134768
-0.000137395
-0.0001367
-0.000132948
-0.000126601
-0.000118241
-0.0001085
-9.79864e-05
-8.72344e-05
-7.66764e-05
-6.66349e-05
-5.73281e-05
-4.88843e-05
-4.13589e-05
-3.47524e-05
-2.90267e-05
-2.41187e-05
-1.99513e-05
-1.64417e-05
-1.35069e-05
-1.10679e-05
-9.05173e-06
-7.39291e-06
-6.03361e-06
-4.92366e-06
-4.02007e-06
-3.28637e-06
-2.69194e-06
-2.2112e-06
-1.82294e-06
-1.50966e-06
-1.25694e-06
-1.05298e-06
-8.88148e-07
-7.54596e-07
-6.45961e-07
-5.57067e-07
-4.83699e-07
-4.22411e-07
-3.70396e-07
-3.25377e-07
-2.85535e-07
-2.49445e-07
-2.16024e-07
-1.84483e-07
-1.54288e-07
-1.25119e-07
-9.68291e-08
-6.94367e-08
-4.29221e-08
-1.92026e-08
8.54224e-05
8.52856e-05
8.4938e-05
8.43802e-05
8.3604e-05
8.25781e-05
8.1259e-05
7.95942e-05
7.75214e-05
7.49662e-05
7.18423e-05
6.80513e-05
6.3484e-05
5.80221e-05
5.15426e-05
4.39239e-05
3.50546e-05
2.48456e-05
1.3246e-05
2.61533e-07
-1.40248e-05
-2.94321e-05
-4.56644e-05
-6.23008e-05
-7.87999e-05
-9.45203e-05
-0.000108764
-0.000120838
-0.000130134
-0.000136201
-0.000138814
-0.000138008
-0.000134065
-0.000127473
-0.000118849
-0.000108851
-9.81091e-05
-8.71699e-05
-7.64701e-05
-6.63305e-05
-5.69643e-05
-4.84928e-05
-4.09639e-05
-3.43714e-05
-2.86711e-05
-2.37952e-05
-1.9663e-05
-1.6189e-05
-1.32884e-05
-1.08811e-05
-8.89366e-06
-7.26024e-06
-5.92306e-06
-4.8321e-06
-3.94464e-06
-3.22451e-06
-2.64139e-06
-2.17004e-06
-1.78952e-06
-1.48257e-06
-1.23501e-06
-1.03523e-06
-8.73765e-07
-7.42914e-07
-6.36441e-07
-5.49274e-07
-4.77283e-07
-4.17091e-07
-3.65947e-07
-3.21619e-07
-2.82332e-07
-2.46696e-07
-2.13664e-07
-1.82474e-07
-1.52609e-07
-1.23756e-07
-9.57711e-08
-6.866e-08
-4.23905e-08
-1.88435e-08
8.55438e-05
8.5411e-05
8.50732e-05
8.45312e-05
8.37763e-05
8.27779e-05
8.1493e-05
7.98696e-05
7.78456e-05
7.5347e-05
7.22871e-05
6.85669e-05
6.40752e-05
5.86912e-05
5.22877e-05
4.47368e-05
3.59193e-05
2.57361e-05
1.41246e-05
1.07792e-06
-1.33329e-05
-2.89365e-05
-4.54408e-05
-6.2421e-05
-7.93203e-05
-9.54703e-05
-0.000110135
-0.000122575
-0.000132138
-0.000138337
-0.00014093
-0.000139955
-0.000135724
-0.000128767
-0.000119746
-0.000109364
-9.82827e-05
-8.70661e-05
-7.6157e-05
-6.58737e-05
-5.64211e-05
-4.791e-05
-4.03773e-05
-3.38066e-05
-2.81448e-05
-2.3317e-05
-1.92372e-05
-1.5816e-05
-1.29662e-05
-1.06059e-05
-8.66089e-06
-7.06499e-06
-5.76044e-06
-4.69751e-06
-3.83383e-06
-3.1337e-06
-2.56727e-06
-2.10975e-06
-1.74064e-06
-1.44305e-06
-1.20312e-06
-1.00953e-06
-8.53053e-07
-7.26221e-07
-6.22976e-07
-5.38401e-07
-4.68487e-07
-4.09958e-07
-3.6014e-07
-3.16872e-07
-2.78438e-07
-2.43506e-07
-2.11075e-07
-1.80425e-07
-1.51064e-07
-1.22693e-07
-9.51636e-08
-6.84652e-08
-4.2522e-08
-1.91117e-08
8.57012e-05
8.55735e-05
8.52485e-05
8.47269e-05
8.39997e-05
8.30371e-05
8.17966e-05
8.02271e-05
7.82668e-05
7.58419e-05
7.28657e-05
6.92379e-05
6.48455e-05
5.9564e-05
5.32607e-05
4.58002e-05
3.70525e-05
2.69056e-05
1.52817e-05
2.15695e-06
-1.24137e-05
-2.82719e-05
-4.51316e-05
-6.25633e-05
-7.99907e-05
-9.67098e-05
-0.000111933
-0.000124862
-0.00013478
-0.000141156
-0.000143721
-0.000142521
-0.000137905
-0.000130459
-0.000120912
-0.000110023
-9.84949e-05
-8.69154e-05
-7.57344e-05
-6.52655e-05
-5.57028e-05
-4.71426e-05
-3.96074e-05
-3.30669e-05
-2.74569e-05
-2.2693e-05
-1.86823e-05
-1.53306e-05
-1.25471e-05
-1.02483e-05
-8.35858e-06
-6.81153e-06
-5.54943e-06
-4.52288e-06
-3.69007e-06
-3.01586e-06
-2.47105e-06
-2.03143e-06
-1.67705e-06
-1.39152e-06
-1.16141e-06
-9.7576e-07
-8.2568e-07
-7.03977e-07
-6.04838e-07
-5.23544e-07
-4.56248e-07
-3.99798e-07
-3.51625e-07
-3.09659e-07
-2.72263e-07
-2.38181e-07
-2.06479e-07
-1.76486e-07
-1.47745e-07
-1.19975e-07
-9.30251e-08
-6.68678e-08
-4.1409e-08
-1.84074e-08
8.5891e-05
8.57694e-05
8.54599e-05
8.49628e-05
8.42693e-05
8.33499e-05
8.21632e-05
8.06587e-05
7.87756e-05
7.64403e-05
7.35658e-05
7.00507e-05
6.57797e-05
6.0624e-05
5.44445e-05
4.70962e-05
3.84369e-05
2.83385e-05
1.6704e-05
3.48927e-06
-1.12716e-05
-2.74367e-05
-4.47287e-05
-6.27132e-05
-8.07912e-05
-9.82148e-05
-0.000114133
-0.000127671
-0.000138035
-0.000144631
-0.000147161
-0.000145678
-0.000140579
-0.000132524
-0.000122323
-0.000110807
-9.8731e-05
-8.67092e-05
-7.51992e-05
-6.45081e-05
-5.48154e-05
-4.61997e-05
-3.86649e-05
-3.21642e-05
-2.66193e-05
-2.19347e-05
-1.80091e-05
-1.47424e-05
-1.20401e-05
-9.81601e-06
-7.99351e-06
-6.50571e-06
-5.29504e-06
-4.31255e-06
-3.51707e-06
-2.87422e-06
-2.35555e-06
-1.93759e-06
-1.60105e-06
-1.33014e-06
-1.11194e-06
-9.35944e-07
-7.93655e-07
-6.78224e-07
-5.84127e-07
-5.06883e-07
-4.42834e-07
-3.88978e-07
-3.42869e-07
-3.02542e-07
-2.66458e-07
-2.33451e-07
-2.02663e-07
-1.73486e-07
-1.45503e-07
-1.18449e-07
-9.21675e-08
-6.66057e-08
-4.16099e-08
-1.8808e-08
8.61086e-05
8.5994e-05
8.57024e-05
8.52336e-05
8.45786e-05
8.37089e-05
8.25841e-05
8.11548e-05
7.93608e-05
7.7129e-05
7.43723e-05
7.09883e-05
6.68587e-05
6.18503e-05
5.58166e-05
4.8602e-05
4.00496e-05
3.00131e-05
1.83732e-05
5.06083e-06
-9.91433e-06
-2.64313e-05
-4.42242e-05
-6.28546e-05
-8.16979e-05
-9.99551e-05
-0.0001167
-0.000130965
-0.000141864
-0.000148724
-0.000151211
-0.000149387
-0.000143708
-0.000134925
-0.000123947
-0.000111692
-9.89735e-05
-8.6438e-05
-7.45495e-05
-6.36058e-05
-5.37683e-05
-4.50937e-05
-3.75644e-05
-3.11139e-05
-2.56474e-05
-2.10569e-05
-1.72314e-05
-1.4064e-05
-1.1456e-05
-9.3186e-06
-7.57381e-06
-6.15437e-06
-5.00291e-06
-4.07107e-06
-3.31844e-06
-2.71152e-06
-2.22276e-06
-1.82953e-06
-1.51334e-06
-1.25907e-06
-1.05439e-06
-8.89329e-07
-7.55842e-07
-6.47478e-07
-5.59051e-07
-4.86352e-07
-4.2594e-07
-3.74983e-07
-3.31175e-07
-2.92673e-07
-2.58053e-07
-2.26249e-07
-1.96497e-07
-1.68257e-07
-1.41159e-07
-1.14955e-07
-8.94854e-08
-6.46709e-08
-4.03314e-08
-1.80583e-08
8.63489e-05
8.62422e-05
8.59703e-05
8.55327e-05
8.49205e-05
8.4106e-05
8.30498e-05
8.17039e-05
8.0009e-05
7.78927e-05
7.52676e-05
7.20303e-05
6.80599e-05
6.32181e-05
5.73503e-05
5.02894e-05
4.18626e-05
3.19025e-05
2.02649e-05
6.85235e-06
-8.35435e-06
-2.52592e-05
-4.36113e-05
-6.29697e-05
-8.26825e-05
-0.000101894
-0.00011959
-0.000134697
-0.000146216
-0.000153384
-0.000155819
-0.000153598
-0.000147244
-0.000137618
-0.000125747
-0.000112648
-9.92042e-05
-8.60935e-05
-7.37858e-05
-6.25663e-05
-5.25744e-05
-4.38413e-05
-3.63244e-05
-2.9935e-05
-2.45601e-05
-2.00774e-05
-1.63655e-05
-1.33102e-05
-1.08081e-05
-8.76761e-06
-7.10952e-06
-5.7662e-06
-4.68059e-06
-3.805e-06
-3.09991e-06
-2.53286e-06
-2.07727e-06
-1.7115e-06
-1.41791e-06
-1.18214e-06
-9.92511e-07
-8.39632e-07
-7.15972e-07
-6.15518e-07
-5.33455e-07
-4.65874e-07
-4.09566e-07
-3.61882e-07
-3.20667e-07
-2.84209e-07
-2.51207e-07
-2.20712e-07
-1.92056e-07
-1.64779e-07
-1.3856e-07
-1.13168e-07
-8.84381e-08
-6.42609e-08
-4.04011e-08
-1.83459e-08
8.66064e-05
8.6508e-05
8.62573e-05
8.58533e-05
8.5287e-05
8.45316e-05
8.35494e-05
8.22934e-05
8.07054e-05
7.87139e-05
7.62316e-05
7.31539e-05
6.93573e-05
6.46983e-05
5.90141e-05
5.21252e-05
4.38414e-05
3.39731e-05
2.23483e-05
8.83793e-06
-6.60999e-06
-2.39287e-05
-4.28862e-05
-6.30413e-05
-8.37144e-05
-0.000103987
-0.00012275
-0.000138806
-0.000151026
-0.000158543
-0.000160919
-0.000158246
-0.000151127
-0.000140552
-0.000127681
-0.000113647
-9.94052e-05
-8.56696e-05
-7.29121e-05
-6.14016e-05
-5.12513e-05
-4.24634e-05
-3.49675e-05
-2.86506e-05
-2.33795e-05
-1.90168e-05
-1.54301e-05
-1.24975e-05
-1.01106e-05
-8.17521e-06
-6.61081e-06
-5.34953e-06
-4.33469e-06
-3.51943e-06
-2.86524e-06
-2.34077e-06
-1.92057e-06
-1.58404e-06
-1.31447e-06
-1.09831e-06
-9.24615e-07
-7.84611e-07
-6.71318e-07
-5.79204e-07
-5.03855e-07
-4.41683e-07
-3.89729e-07
-3.45535e-07
-3.07103e-07
-2.72865e-07
-2.41652e-07
-2.12636e-07
-1.85257e-07
-1.59135e-07
-1.33999e-07
-1.09639e-07
-8.58786e-08
-6.25823e-08
-3.94761e-08
-1.79693e-08
8.68748e-05
8.67852e-05
8.65566e-05
8.61876e-05
8.56693e-05
8.4976e-05
8.40712e-05
8.29094e-05
8.14339e-05
7.95737e-05
7.72421e-05
7.43336e-05
7.07219e-05
6.62585e-05
6.07722e-05
5.40708e-05
4.59462e-05
3.61849e-05
2.45853e-05
1.09842e-05
-4.70689e-06
-2.24545e-05
-4.20494e-05
-6.30537e-05
-8.47605e-05
-0.000106186
-0.000126116
-0.000143215
-0.000156212
-0.000164116
-0.000166426
-0.00016325
-0.000155285
-0.000143663
-0.000129701
-0.000114655
-9.95602e-05
-8.51639e-05
-7.19374e-05
-6.0129e-05
-4.9822e-05
-4.09863e-05
-3.35213e-05
-2.72877e-05
-2.21314e-05
-1.78991e-05
-1.44469e-05
-1.16452e-05
-9.38066e-06
-7.55644e-06
-6.09085e-06
-4.91587e-06
-3.97539e-06
-3.22343e-06
-2.6226e-06
-2.14274e-06
-1.75961e-06
-1.45371e-06
-1.20931e-06
-1.01372e-06
-8.56732e-07
-7.30224e-07
-6.27798e-07
-5.44423e-07
-4.76102e-07
-4.19579e-07
-3.72145e-07
-3.3154e-07
-2.95927e-07
-2.63885e-07
-2.34384e-07
-2.06728e-07
-1.80467e-07
-1.55304e-07
-1.31022e-07
-1.07428e-07
-8.43424e-08
-6.16048e-08
-3.89179e-08
-1.76851e-08
8.71479e-05
8.70672e-05
8.68611e-05
8.65279e-05
8.60585e-05
8.54284e-05
8.46027e-05
8.35374e-05
8.2177e-05
8.04519e-05
7.82755e-05
7.55417e-05
7.21219e-05
6.78628e-05
6.25847e-05
5.60828e-05
4.81307e-05
3.84906e-05
2.693e-05
1.32493e-05
-2.67913e-06
-2.08589e-05
-4.11079e-05
-6.29948e-05
-8.57874e-05
-0.000108435
-0.000129612
-0.000147834
-0.000161671
-0.000169996
-0.000172235
-0.000168512
-0.000159631
-0.000146884
-0.000131756
-0.000115641
-9.96565e-05
-8.45793e-05
-7.08767e-05
-5.8772e-05
-4.83151e-05
-3.94411e-05
-3.20171e-05
-2.58767e-05
-2.08442e-05
-1.67499e-05
-1.34384e-05
-1.07727e-05
-8.63461e-06
-6.92474e-06
-5.56042e-06
-4.47365e-06
-3.60894e-06
-2.92133e-06
-2.37462e-06
-1.93994e-06
-1.59427e-06
-1.31928e-06
-1.10026e-06
-9.25385e-07
-7.85212e-07
-6.72287e-07
-5.80814e-07
-5.06277e-07
-4.45108e-07
-3.94379e-07
-3.51635e-07
-3.14808e-07
-2.82225e-07
-2.52613e-07
-2.25086e-07
-1.9908e-07
-1.74255e-07
-1.50398e-07
-1.27334e-07
-1.04888e-07
-8.28659e-08
-6.1076e-08
-3.91588e-08
-1.83379e-08
8.74192e-05
8.73473e-05
8.71636e-05
8.68659e-05
8.64453e-05
8.58782e-05
8.51313e-05
8.41623e-05
8.2917e-05
8.13272e-05
7.93068e-05
7.67492e-05
7.35239e-05
6.94728e-05
6.44084e-05
5.81134e-05
5.03437e-05
4.08367e-05
2.93289e-05
1.55829e-05
-5.69932e-07
-1.91734e-05
-4.00762e-05
-6.28576e-05
-8.67631e-05
-0.000110676
-0.000133153
-0.000152557
-0.000167283
-0.000176055
-0.000178218
-0.000173915
-0.000164065
-0.000150136
-0.000133794
-0.000116578
-9.96863e-05
-8.39252e-05
-6.9752e-05
-5.7361e-05
-4.67657e-05
-3.78646e-05
-3.04916e-05
-2.44525e-05
-1.95499e-05
-1.55982e-05
-1.24308e-05
-9.90321e-06
-7.89292e-06
-6.29817e-06
-5.0355e-06
-4.03708e-06
-3.24813e-06
-2.62476e-06
-2.13202e-06
-1.74233e-06
-1.43397e-06
-1.18975e-06
-9.95952e-07
-8.41638e-07
-7.18115e-07
-6.18603e-07
-5.37901e-07
-4.72013e-07
-4.17788e-07
-3.72625e-07
-3.34308e-07
-3.0096e-07
-2.71068e-07
-2.43513e-07
-2.1756e-07
-1.92779e-07
-1.68948e-07
-1.45931e-07
-1.23601e-07
-1.01793e-07
-8.03055e-08
-5.89359e-08
-3.73533e-08
-1.69368e-08
8.76823e-05
8.7619e-05
8.74569e-05
8.71937e-05
8.68203e-05
8.63143e-05
8.56441e-05
8.47688e-05
8.36359e-05
8.21782e-05
8.03106e-05
7.79263e-05
7.48929e-05
7.10482e-05
6.61976e-05
6.01118e-05
5.25294e-05
4.31642e-05
3.17215e-05
1.79265e-05
1.56824e-06
-1.74389e-05
-3.89777e-05
-6.26417e-05
-8.76581e-05
-0.000112846
-0.000136647
-0.000157262
-0.000172904
-0.00018214
-0.000184227
-0.000179326
-0.000168477
-0.000153335
-0.000135761
-0.000117439
-9.96482e-05
-8.32184e-05
-6.85925e-05
-5.59326e-05
-4.52139e-05
-3.62975e-05
-2.89838e-05
-2.3051e-05
-1.82809e-05
-1.44723e-05
-1.14481e-05
-9.05674e-06
-7.1718e-06
-5.68951e-06
-4.52579e-06
-3.6131e-06
-2.8975e-06
-2.33616e-06
-1.89545e-06
-1.54908e-06
-1.27661e-06
-1.06196e-06
-8.92444e-07
-7.5793e-07
-6.50469e-07
-5.63941e-07
-4.93734e-07
-4.36355e-07
-3.89055e-07
-3.49538e-07
-3.15812e-07
-2.86172e-07
-2.59259e-07
-2.34105e-07
-2.10119e-07
-1.87009e-07
-1.64659e-07
-1.43004e-07
-1.21949e-07
-1.01332e-07
-8.09285e-08
-6.0496e-08
-3.95955e-08
-1.92609e-08
8.79309e-05
8.78757e-05
8.77341e-05
8.75034e-05
8.71746e-05
8.67264e-05
8.61287e-05
8.53421e-05
8.43157e-05
8.29837e-05
8.12618e-05
7.90431e-05
7.61938e-05
7.25484e-05
6.79053e-05
6.20246e-05
5.46289e-05
4.54093e-05
3.40415e-05
2.02142e-05
3.67446e-06
-1.57058e-05
-3.7845e-05
-6.23548e-05
-8.84482e-05
-0.000114885
-0.000139994
-0.000161814
-0.000178376
-0.00018808
-0.000190093
-0.000184591
-0.000172743
-0.000156396
-0.000137606
-0.000118204
-9.95482e-05
-8.24835e-05
-6.7435e-05
-5.45303e-05
-4.37059e-05
-3.47855e-05
-2.75371e-05
-2.17126e-05
-1.70737e-05
-1.34048e-05
-1.05191e-05
-8.25879e-06
-6.49382e-06
-5.11876e-06
-4.04914e-06
-3.21779e-06
-2.57162e-06
-2.06891e-06
-1.67726e-06
-1.37168e-06
-1.13293e-06
-9.46046e-07
-7.99228e-07
-6.83151e-07
-5.90555e-07
-5.15948e-07
-4.55281e-07
-4.05541e-07
-3.64361e-07
-3.29724e-07
-2.99843e-07
-2.73174e-07
-2.48507e-07
-2.25023e-07
-2.02282e-07
-1.80129e-07
-1.58554e-07
-1.37561e-07
-1.17084e-07
-9.69572e-08
-7.69428e-08
-5.67936e-08
-3.61589e-08
-1.64168e-08
8.81592e-05
8.81113e-05
8.79885e-05
8.77875e-05
8.74995e-05
8.71043e-05
8.65731e-05
8.58679e-05
8.49395e-05
8.37232e-05
8.21357e-05
8.00704e-05
7.73923e-05
7.39328e-05
6.94847e-05
6.37986e-05
5.65823e-05
4.75065e-05
3.62193e-05
2.23751e-05
5.68113e-06
-1.40322e-05
-3.67195e-05
-6.20126e-05
-8.9115e-05
-0.000116733
-0.00014309
-0.000166071
-0.000183524
-0.000193686
-0.00019563
-0.000189549
-0.000176735
-0.000159229
-0.00013928
-0.000118862
-9.93994e-05
-8.17516e-05
-6.63214e-05
-5.32013e-05
-4.22897e-05
-3.33748e-05
-2.6194e-05
-2.04749e-05
-1.59607e-05
-1.24232e-05
-9.66647e-06
-7.52746e-06
-5.87304e-06
-4.59642e-06
-3.61294e-06
-2.85589e-06
-2.273e-06
-1.82364e-06
-1.47659e-06
-1.20809e-06
-1.00003e-06
-8.38445e-07
-7.12382e-07
-6.13224e-07
-5.34342e-07
-4.7082e-07
-4.1913e-07
-3.76699e-07
-3.41505e-07
-3.11777e-07
-2.85899e-07
-2.62464e-07
-2.40393e-07
-2.19004e-07
-1.97999e-07
-1.77345e-07
-1.57131e-07
-1.37412e-07
-1.18139e-07
-9.91292e-08
-8.01114e-08
-6.07857e-08
-4.06418e-08
-2.05421e-08
8.83618e-05
8.83204e-05
8.82141e-05
8.80394e-05
8.77874e-05
8.74389e-05
8.69663e-05
8.63332e-05
8.54914e-05
8.43777e-05
8.29096e-05
8.09808e-05
7.84556e-05
7.5163e-05
7.0891e-05
6.53817e-05
5.83307e-05
4.93903e-05
3.81844e-05
2.43363e-05
7.51697e-06
-1.24818e-05
-3.56495e-05
-6.16387e-05
-8.96477e-05
-0.000118338
-0.000145837
-0.000169887
-0.000188167
-0.000198759
-0.000200643
-0.000194026
-0.00018032
-0.000161747
-0.000140742
-0.000119404
-9.92219e-05
-8.10602e-05
-6.5299e-05
-5.19968e-05
-4.10166e-05
-3.21143e-05
-2.49996e-05
-1.93786e-05
-1.49784e-05
-1.15594e-05
-8.91842e-06
-6.8876e-06
-5.33135e-06
-4.1419e-06
-3.23448e-06
-2.54286e-06
-2.01556e-06
-1.61293e-06
-1.30485e-06
-1.06863e-06
-8.87208e-07
-7.47496e-07
-6.3927e-07
-5.54531e-07
-4.87201e-07
-4.32877e-07
-3.88499e-07
-3.51895e-07
-3.2135e-07
-2.95306e-07
-2.72299e-07
-2.5104e-07
-2.30565e-07
-2.10324e-07
-1.90149e-07
-1.70128e-07
-1.50438e-07
-1.31183e-07
-1.12321e-07
-9.36556e-08
-7.48929e-08
-5.57356e-08
-3.58077e-08
-1.64714e-08
8.8534e-05
8.84981e-05
8.84056e-05
8.82529e-05
8.80311e-05
8.77219e-05
8.72987e-05
8.67262e-05
8.59574e-05
8.49302e-05
8.3563e-05
8.17498e-05
7.93545e-05
7.62041e-05
7.20827e-05
6.6726e-05
5.98189e-05
5.09989e-05
3.98692e-05
2.60266e-05
9.11094e-06
-1.112e-05
-3.46866e-05
-6.1262e-05
-9.00423e-05
-0.000119652
-0.000148139
-0.000173122
-0.000192128
-0.000203101
-0.000204937
-0.000197854
-0.00018337
-0.000163872
-0.000141954
-0.000119831
-9.90399e-05
-8.04487e-05
-6.44147e-05
-5.09658e-05
-3.99342e-05
-3.10477e-05
-2.39929e-05
-1.84573e-05
-1.41549e-05
-1.08367e-05
-8.29341e-06
-6.35358e-06
-4.87964e-06
-3.76307e-06
-2.91913e-06
-2.28205e-06
-1.80103e-06
-1.43729e-06
-1.16163e-06
-9.52328e-07
-7.9318e-07
-6.71838e-07
-5.78679e-07
-5.06204e-07
-4.48784e-07
-4.02447e-07
-3.64528e-07
-3.33195e-07
-3.06984e-07
-2.84515e-07
-2.64437e-07
-2.4555e-07
-2.26984e-07
-2.08288e-07
-1.89407e-07
-1.70526e-07
-1.5189e-07
-1.33637e-07
-1.15724e-07
-9.79286e-08
-7.99204e-08
-6.13469e-08
-4.16493e-08
-2.16036e-08
8.86718e-05
8.86402e-05
8.85585e-05
8.84231e-05
8.8225e-05
8.79465e-05
8.75619e-05
8.7037e-05
8.63255e-05
8.53662e-05
8.40784e-05
8.23562e-05
8.00634e-05
7.70256e-05
7.3024e-05
6.77893e-05
6.09984e-05
5.22772e-05
4.12127e-05
2.7381e-05
1.03971e-05
-1.00087e-05
-3.38823e-05
-6.09143e-05
-9.0301e-05
-0.00012064
-0.000149915
-0.000175647
-0.000195242
-0.000206527
-0.000208331
-0.000200877
-0.00018577
-0.000165532
-0.00014289
-0.000120147
-9.88803e-05
-7.99568e-05
-6.37144e-05
-5.01556e-05
-3.90881e-05
-3.02175e-05
-2.32119e-05
-1.77448e-05
-1.35198e-05
-1.02808e-05
-7.81394e-06
-5.94496e-06
-4.53489e-06
-3.47472e-06
-2.67977e-06
-2.08464e-06
-1.63912e-06
-1.30508e-06
-1.05406e-06
-8.6511e-07
-7.22704e-07
-6.15067e-07
-5.33035e-07
-4.69484e-07
-4.19134e-07
-3.78347e-07
-3.44778e-07
-3.16867e-07
-2.93361e-07
-2.73017e-07
-2.54573e-07
-2.369e-07
-2.19198e-07
-2.01098e-07
-1.82633e-07
-1.64067e-07
-1.45698e-07
-1.2769e-07
-1.09996e-07
-9.23739e-08
-7.44731e-08
-5.59518e-08
-3.64026e-08
-1.71551e-08
8.87721e-05
8.87435e-05
8.86694e-05
8.8546e-05
8.83644e-05
8.81073e-05
8.77497e-05
8.72578e-05
8.65863e-05
8.56744e-05
8.44419e-05
8.27834e-05
8.05622e-05
7.76034e-05
7.36861e-05
6.85377e-05
6.18297e-05
5.318e-05
4.21646e-05
2.83453e-05
1.13195e-05
-9.20145e-06
-3.3282e-05
-6.06257e-05
-9.043e-05
-0.000121274
-0.0001511
-0.000177359
-0.000197371
-0.000208881
-0.000210669
-0.00020296
-0.000187421
-0.000166671
-0.000143528
-0.000120359
-9.87671e-05
-7.96182e-05
-6.32356e-05
-4.9604e-05
-3.85138e-05
-2.96554e-05
-2.26844e-05
-1.72645e-05
-1.30925e-05
-9.9075e-06
-7.49257e-06
-5.6716e-06
-4.30473e-06
-3.28264e-06
-2.52076e-06
-1.95394e-06
-1.53235e-06
-1.21834e-06
-9.8397e-07
-8.08794e-07
-6.77773e-07
-5.79517e-07
-5.05159e-07
-4.47822e-07
-4.02451e-07
-3.65632e-07
-3.3524e-07
-3.09908e-07
-2.88526e-07
-2.69944e-07
-2.52959e-07
-2.36479e-07
-2.19745e-07
-2.02443e-07
-1.84658e-07
-1.66707e-07
-1.4892e-07
-1.31472e-07
-1.14307e-07
-9.71619e-08
-7.96572e-08
-6.14091e-08
-4.18533e-08
-2.18256e-08
8.88328e-05
8.88058e-05
8.87358e-05
8.86189e-05
8.84462e-05
8.82007e-05
8.78576e-05
8.73835e-05
8.67333e-05
8.58469e-05
8.4644e-05
8.30196e-05
8.0837e-05
7.79206e-05
7.40488e-05
6.89473e-05
6.22848e-05
5.36751e-05
4.26887e-05
2.888e-05
1.18373e-05
-8.73813e-06
-3.29205e-05
-6.04203e-05
-9.04364e-05
-0.00012154
-0.00015165
-0.000178184
-0.000198417
-0.000210051
-0.000211838
-0.000204007
-0.000188254
-0.000167247
-0.000143854
-0.000120472
-9.87193e-05
-7.94588e-05
-6.30069e-05
-4.93393e-05
-3.8238e-05
-2.93858e-05
-2.24318e-05
-1.70352e-05
-1.28891e-05
-9.73054e-06
-7.34092e-06
-5.54327e-06
-4.19729e-06
-3.19355e-06
-2.44749e-06
-1.89414e-06
-1.48383e-06
-1.17915e-06
-9.52416e-07
-7.83457e-07
-6.57475e-07
-5.63274e-07
-4.92135e-07
-4.37294e-07
-3.93803e-07
-3.58363e-07
-3.28967e-07
-3.0435e-07
-2.83484e-07
-2.6527e-07
-2.48532e-07
-2.32197e-07
-2.15524e-07
-1.98224e-07
-1.80411e-07
-1.62429e-07
-1.44625e-07
-1.27178e-07
-1.10023e-07
-9.28824e-08
-7.53657e-08
-5.71007e-08
-3.76431e-08
-1.82683e-08
8.88527e-05
8.88259e-05
8.87564e-05
8.86403e-05
8.84687e-05
8.82245e-05
8.78831e-05
8.7411e-05
8.67632e-05
8.58794e-05
8.46797e-05
8.30588e-05
8.08801e-05
7.79682e-05
7.41014e-05
6.90053e-05
6.23487e-05
5.37454e-05
4.27657e-05
2.89639e-05
1.19281e-05
-8.64066e-06
-3.28172e-05
-6.03125e-05
-9.03262e-05
-0.00012143
-0.000151544
-0.000178084
-0.000198328
-0.000209976
-0.00021178
-0.000203966
-0.000188231
-0.00016724
-0.000143861
-0.000120491
-9.87463e-05
-7.94911e-05
-6.3042e-05
-4.93753e-05
-3.82736e-05
-2.942e-05
-2.24641e-05
-1.70653e-05
-1.29169e-05
-9.75605e-06
-7.3642e-06
-5.56444e-06
-4.21652e-06
-3.21099e-06
-2.46333e-06
-1.90853e-06
-1.49691e-06
-1.19104e-06
-9.63226e-07
-7.93291e-07
-6.66438e-07
-5.71468e-07
-4.99645e-07
-4.44189e-07
-4.00136e-07
-3.6418e-07
-3.34315e-07
-3.09284e-07
-2.88062e-07
-2.69553e-07
-2.52574e-07
-2.36044e-07
-2.19215e-07
-2.01793e-07
-1.83893e-07
-1.6586e-07
-1.4804e-07
-1.30608e-07
-1.13491e-07
-9.63998e-08
-7.89297e-08
-6.06841e-08
-4.11213e-08
-2.12258e-08
8.88317e-05
8.88037e-05
8.87311e-05
8.86101e-05
8.84317e-05
8.81787e-05
8.78261e-05
8.73402e-05
8.66756e-05
8.57718e-05
8.45486e-05
8.29006e-05
8.06913e-05
7.77458e-05
7.38433e-05
6.87111e-05
6.20207e-05
5.33899e-05
4.23945e-05
2.85958e-05
1.15905e-05
-8.91084e-06
-3.29742e-05
-6.03046e-05
-9.01016e-05
-0.000120947
-0.000150783
-0.000177063
-0.000197107
-0.00020866
-0.000210496
-0.000202839
-0.000187352
-0.000166649
-0.000143548
-0.000120413
-9.88463e-05
-7.97134e-05
-6.33392e-05
-4.97104e-05
-3.86189e-05
-2.97566e-05
-2.27799e-05
-1.73534e-05
-1.31744e-05
-9.9824e-06
-7.56063e-06
-5.73315e-06
-4.36017e-06
-3.33245e-06
-2.56541e-06
-1.99389e-06
-1.56799e-06
-1.24999e-06
-1.01192e-06
-8.33353e-07
-6.99235e-07
-5.9817e-07
-5.21254e-07
-4.6156e-07
-4.1399e-07
-3.75113e-07
-3.42814e-07
-3.15744e-07
-2.92814e-07
-2.72876e-07
-2.54712e-07
-2.37209e-07
-2.19588e-07
-2.01525e-07
-1.83107e-07
-1.64654e-07
-1.46497e-07
-1.28801e-07
-1.11484e-07
-9.42533e-08
-7.6701e-08
-5.84344e-08
-3.89629e-08
-1.94675e-08
8.87707e-05
8.87401e-05
8.86609e-05
8.85294e-05
8.83367e-05
8.80649e-05
8.76886e-05
8.71735e-05
8.64736e-05
8.55277e-05
8.42552e-05
8.25505e-05
8.02773e-05
7.72614e-05
7.32841e-05
6.80761e-05
6.13142e-05
5.2624e-05
4.15922e-05
2.77942e-05
1.08438e-05
-9.53026e-06
-3.33761e-05
-6.03868e-05
-8.97621e-05
-0.000120102
-0.000149395
-0.000175162
-0.00019481
-0.000206163
-0.000208046
-0.000200676
-0.000185653
-0.000165494
-0.000142921
-0.000120233
-9.90072e-05
-8.01103e-05
-6.38824e-05
-5.03288e-05
-3.92598e-05
-3.03833e-05
-2.33688e-05
-1.78912e-05
-1.3655e-05
-1.04048e-05
-7.92697e-06
-6.04752e-06
-4.62764e-06
-3.55842e-06
-2.75521e-06
-2.15257e-06
-1.70018e-06
-1.35983e-06
-1.103e-06
-9.08729e-07
-7.61501e-07
-6.49518e-07
-5.63557e-07
-4.96416e-07
-4.42744e-07
-3.98871e-07
-3.62465e-07
-3.31995e-07
-3.06233e-07
-2.8394e-07
-2.63829e-07
-2.44732e-07
-2.25818e-07
-2.06703e-07
-1.87419e-07
-1.6824e-07
-1.49463e-07
-1.31233e-07
-1.13464e-07
-9.58645e-08
-7.80262e-08
-5.95519e-08
-3.9925e-08
-2.0278e-08
8.86715e-05
8.8637e-05
8.8548e-05
8.84008e-05
8.81864e-05
8.78865e-05
8.74748e-05
8.69159e-05
8.61632e-05
8.51545e-05
8.38086e-05
8.20195e-05
7.96512e-05
7.6531e-05
7.24431e-05
6.7123e-05
6.02557e-05
5.14782e-05
4.03931e-05
2.65963e-05
9.72594e-06
-1.04622e-05
-3.39917e-05
-6.0539e-05
-8.93046e-05
-0.000118917
-0.000147429
-0.00017246
-0.000191538
-0.000202603
-0.000204546
-0.000197577
-0.000183207
-0.000163815
-0.00014199
-0.000119942
-9.92076e-05
-8.06535e-05
-6.46404e-05
-5.11997e-05
-4.01671e-05
-3.12733e-05
-2.4207e-05
-1.86575e-05
-1.43402e-05
-1.10068e-05
-8.44861e-06
-6.49445e-06
-5.007e-06
-3.87789e-06
-3.02244e-06
-2.37483e-06
-1.88415e-06
-1.51149e-06
-1.22757e-06
-1.01067e-06
-8.44594e-07
-7.16957e-07
-6.18069e-07
-5.40329e-07
-4.78023e-07
-4.27135e-07
-3.85014e-07
-3.49866e-07
-3.20263e-07
-2.94825e-07
-2.72169e-07
-2.5105e-07
-2.30556e-07
-2.10218e-07
-1.89982e-07
-1.70045e-07
-1.50653e-07
-1.3192e-07
-1.13752e-07
-9.58598e-08
-7.78415e-08
-5.92997e-08
-3.97093e-08
-2.01873e-08
8.85371e-05
8.84975e-05
8.83956e-05
8.82279e-05
8.79853e-05
8.76486e-05
8.71906e-05
8.65749e-05
8.57534e-05
8.46632e-05
8.3222e-05
8.13236e-05
7.88326e-05
7.55781e-05
7.13481e-05
6.58848e-05
5.88835e-05
4.99961e-05
3.88457e-05
2.50541e-05
8.29059e-06
-1.1656e-05
-3.47786e-05
-6.07343e-05
-8.87266e-05
-0.000117422
-0.000144952
-0.000169063
-0.000187432
-0.000198137
-0.000200153
-0.000193675
-0.000180108
-0.000161667
-0.000140777
-0.000119533
-9.94217e-05
-8.13077e-05
-6.55742e-05
-5.22839e-05
-4.13041e-05
-3.2394e-05
-2.52663e-05
-1.9629e-05
-1.52109e-05
-1.17735e-05
-9.11424e-06
-7.06581e-06
-5.4929e-06
-4.28792e-06
-3.36621e-06
-2.66149e-06
-2.12217e-06
-1.70845e-06
-1.39011e-06
-1.14447e-06
-9.54446e-07
-8.06926e-07
-6.91606e-07
-6.00368e-07
-5.2703e-07
-4.67137e-07
-4.17637e-07
-3.76402e-07
-3.41751e-07
-3.12127e-07
-2.86029e-07
-2.62112e-07
-2.39365e-07
-2.17211e-07
-1.95486e-07
-1.74292e-07
-1.53801e-07
-1.34092e-07
-1.1506e-07
-9.64206e-08
-7.77872e-08
-5.87754e-08
-3.88913e-08
-1.94059e-08
8.83711e-05
8.83254e-05
8.82079e-05
8.80154e-05
8.77387e-05
8.73578e-05
8.68441e-05
8.61598e-05
8.52558e-05
8.40677e-05
8.25124e-05
8.04835e-05
7.78463e-05
7.44322e-05
7.00341e-05
6.44025e-05
5.7245e-05
4.82316e-05
3.70095e-05
2.32312e-05
6.60182e-06
-1.30515e-05
-3.56877e-05
-6.09435e-05
-8.80284e-05
-0.000115655
-0.00014205
-0.000165102
-0.000182658
-0.000192952
-0.000195048
-0.000189128
-0.000176476
-0.000159122
-0.000139308
-0.000119
-9.96218e-05
-8.20319e-05
-6.66366e-05
-5.35329e-05
-4.2624e-05
-3.3702e-05
-2.65073e-05
-2.07703e-05
-1.6236e-05
-1.26773e-05
-9.89958e-06
-7.74005e-06
-6.06604e-06
-4.77105e-06
-3.77056e-06
-2.99783e-06
-2.40049e-06
-1.93775e-06
-1.5783e-06
-1.29835e-06
-1.07978e-06
-9.08614e-07
-7.73801e-07
-6.66604e-07
-5.80278e-07
-5.09847e-07
-4.51788e-07
-4.03572e-07
-3.63217e-07
-3.28953e-07
-2.99129e-07
-2.72279e-07
-2.4727e-07
-2.23393e-07
-2.00352e-07
-1.78127e-07
-1.56804e-07
-1.36406e-07
-1.16811e-07
-9.77376e-08
-7.88072e-08
-5.96361e-08
-3.96959e-08
-2.01488e-08
8.81782e-05
8.81254e-05
8.799e-05
8.77691e-05
8.74535e-05
8.70219e-05
8.64445e-05
8.56821e-05
8.46841e-05
8.33847e-05
8.17e-05
7.95233e-05
7.67211e-05
7.31277e-05
6.85419e-05
6.27235e-05
5.53945e-05
4.62456e-05
3.49509e-05
2.11973e-05
4.72935e-06
-1.45849e-05
-3.66686e-05
-6.1139e-05
-8.72152e-05
-0.000113663
-0.000138817
-0.000160718
-0.000177396
-0.000187247
-0.000189428
-0.000184106
-0.000172438
-0.00015626
-0.00013762
-0.000118344
-9.97837e-05
-8.27866e-05
-6.77804e-05
-5.48974e-05
-4.40789e-05
-3.5153e-05
-2.7891e-05
-2.20479e-05
-1.73874e-05
-1.36956e-05
-1.07867e-05
-8.50354e-06
-6.71661e-06
-5.3208e-06
-4.23187e-06
-3.38267e-06
-2.71998e-06
-2.20197e-06
-1.79612e-06
-1.47741e-06
-1.2266e-06
-1.02869e-06
-8.71796e-07
-7.4647e-07
-6.45328e-07
-5.62807e-07
-4.94858e-07
-4.38509e-07
-3.91433e-07
-3.51621e-07
-3.17246e-07
-2.86707e-07
-2.58737e-07
-2.32487e-07
-2.07515e-07
-1.83674e-07
-1.60948e-07
-1.39304e-07
-1.18593e-07
-9.85383e-08
-7.87726e-08
-5.89307e-08
-3.85318e-08
-1.89634e-08
8.79633e-05
8.79027e-05
8.77478e-05
8.74957e-05
8.71371e-05
8.665e-05
8.60027e-05
8.51547e-05
8.40537e-05
8.26328e-05
8.08071e-05
7.84699e-05
7.54891e-05
7.17027e-05
6.69157e-05
6.08989e-05
5.33903e-05
4.41026e-05
3.27398e-05
1.90248e-05
2.74371e-06
-1.61933e-05
-3.76739e-05
-6.12977e-05
-8.62984e-05
-0.000111501
-0.000135353
-0.000156057
-0.000171826
-0.00018122
-0.000183489
-0.000178781
-0.000168126
-0.000153167
-0.000135757
-0.000117571
-9.98876e-05
-8.35348e-05
-6.89587e-05
-5.63262e-05
-4.56175e-05
-3.66979e-05
-2.93718e-05
-2.34206e-05
-1.86283e-05
-1.47957e-05
-1.17466e-05
-9.3306e-06
-7.4217e-06
-5.91659e-06
-4.73148e-06
-3.79889e-06
-3.06479e-06
-2.48626e-06
-2.02954e-06
-1.66833e-06
-1.38215e-06
-1.15493e-06
-9.7388e-07
-8.28751e-07
-7.11466e-07
-6.15833e-07
-5.37231e-07
-4.72207e-07
-4.18055e-07
-3.72489e-07
-3.33488e-07
-2.9929e-07
-2.68482e-07
-2.40063e-07
-2.13435e-07
-1.88312e-07
-1.64569e-07
-1.42098e-07
-1.20716e-07
-1.00136e-07
-7.99932e-08
-5.99197e-08
-3.93994e-08
-1.97159e-08
8.77322e-05
8.76634e-05
8.74875e-05
8.72021e-05
8.6798e-05
8.62517e-05
8.55302e-05
8.45914e-05
8.33814e-05
8.18321e-05
7.98578e-05
7.73521e-05
7.41844e-05
7.01969e-05
6.52019e-05
5.89818e-05
5.12917e-05
4.18681e-05
3.04454e-05
1.67842e-05
7.12233e-07
-1.78185e-05
-3.8662e-05
-6.14038e-05
-8.52959e-05
-0.000109228
-0.000131762
-0.000151262
-0.000166121
-0.00017506
-0.000177415
-0.000173316
-0.00016367
-0.000149934
-0.000133766
-0.000116697
-9.99217e-05
-8.42462e-05
-7.01303e-05
-5.77727e-05
-4.71919e-05
-3.8291e-05
-3.09076e-05
-2.4851e-05
-1.99264e-05
-1.59501e-05
-1.27569e-05
-1.02034e-05
-8.16758e-06
-6.54837e-06
-5.26259e-06
-4.24253e-06
-3.43341e-06
-2.79122e-06
-2.28094e-06
-1.87493e-06
-1.55148e-06
-1.29336e-06
-1.08681e-06
-9.20737e-07
-7.86337e-07
-6.7675e-07
-5.86763e-07