/*--------------------------------*- C++ -*----------------------------------*\
| =========                 |                                                 |
| \\      /  F ield         | OpenFOAM: The Open Source CFD Toolbox           |
|  \\    /   O peration     | Version:  2512                                  |
|   \\  /    A nd           | Website:  www.openfoam.com                      |
|    \\/     M anipulation  |                                                 |
\*---------------------------------------------------------------------------*/
FoamFile
{
    version     2.0;
    format      ascii;
    arch        "LSB;label=32;scalar=64";
    class       volScalarField;
    location    "141";
    object      p;
}
// * * * * * * * * * * * * * * * * * * * * * * * * * * * * * * * * * * * * * //

dimensions      [0 2 -2 0 0 0 0];

internalField   nonuniform List<scalar> 
229904
(
3.58179e-05
3.57665e-05
3.56349e-05
3.54239e-05
3.51304e-05
3.47429e-05
3.42453e-05
3.36182e-05
3.28385e-05
3.18787e-05
3.07072e-05
2.92877e-05
2.75805e-05
2.55427e-05
2.31303e-05
2.03002e-05
1.70134e-05
1.32397e-05
8.96331e-06
4.18895e-06
-1.05063e-06
-6.68812e-06
-1.26162e-05
-1.86851e-05
-2.47046e-05
-3.04518e-05
-3.56862e-05
-4.01707e-05
-4.36968e-05
-4.61099e-05
-4.73299e-05
-4.73618e-05
-4.62937e-05
-4.42824e-05
-4.15299e-05
-3.82567e-05
-3.46773e-05
-3.09821e-05
-2.7327e-05
-2.383e-05
-2.05726e-05
-1.76043e-05
-1.49484e-05
-1.26085e-05
-1.05737e-05
-8.82386e-06
-7.33332e-06
-6.07401e-06
-5.01751e-06
-4.13647e-06
-3.40552e-06
-2.80173e-06
-2.30483e-06
-1.89715e-06
-1.56352e-06
-1.29101e-06
-1.06876e-06
-8.87676e-07
-7.40192e-07
-6.20043e-07
-5.22072e-07
-4.42038e-07
-3.76473e-07
-3.22542e-07
-2.77934e-07
-2.40762e-07
-2.09488e-07
-1.82857e-07
-1.59859e-07
-1.39678e-07
-1.21677e-07
-1.05358e-07
-9.03458e-08
-7.63675e-08
-6.32344e-08
-5.08315e-08
-3.91074e-08
-2.80635e-08
-1.76169e-08
-8.65971e-09
3.58334e-05
3.57824e-05
3.56521e-05
3.5443e-05
3.51522e-05
3.47682e-05
3.42749e-05
3.3653e-05
3.28795e-05
3.19269e-05
3.07635e-05
2.93529e-05
2.76552e-05
2.56273e-05
2.32245e-05
2.04028e-05
1.71225e-05
1.33522e-05
9.07431e-06
4.2923e-06
-9.62621e-07
-6.62428e-06
-1.25858e-05
-1.8697e-05
-2.47655e-05
-3.05652e-05
-3.58511e-05
-4.03806e-05
-4.39398e-05
-4.63698e-05
-4.75885e-05
-4.76014e-05
-4.64996e-05
-4.4445e-05
-4.16451e-05
-3.83256e-05
-3.47048e-05
-3.09754e-05
-2.72942e-05
-2.37789e-05
-2.05102e-05
-1.75363e-05
-1.48794e-05
-1.25416e-05
-1.0511e-05
-8.76665e-06
-7.28221e-06
-6.02914e-06
-4.97866e-06
-4.10322e-06
-3.37735e-06
-2.77808e-06
-2.28511e-06
-1.88081e-06
-1.55005e-06
-1.27996e-06
-1.05973e-06
-8.80323e-07
-7.34219e-07
-6.15202e-07
-5.18153e-07
-4.38867e-07
-3.73906e-07
-3.20462e-07
-2.76246e-07
-2.3939e-07
-2.08371e-07
-1.81947e-07
-1.59117e-07
-1.39076e-07
-1.21192e-07
-1.04974e-07
-9.00525e-08
-7.61563e-08
-6.30984e-08
-5.0763e-08
-3.90949e-08
-2.80894e-08
-1.76623e-08
-8.66175e-09
3.58638e-05
3.58138e-05
3.56859e-05
3.54808e-05
3.51953e-05
3.48182e-05
3.43334e-05
3.37219e-05
3.29605e-05
3.20221e-05
3.08746e-05
2.94817e-05
2.7803e-05
2.57945e-05
2.34107e-05
2.06062e-05
1.7339e-05
1.35753e-05
9.29496e-06
4.49813e-06
-7.86876e-07
-6.49617e-06
-1.25239e-05
-1.87187e-05
-2.48847e-05
-3.07893e-05
-3.61779e-05
-4.07973e-05
-4.44227e-05
-4.68868e-05
-4.8103e-05
-4.80779e-05
-4.69089e-05
-4.47679e-05
-4.18736e-05
-3.84619e-05
-3.47588e-05
-3.09616e-05
-2.72286e-05
-2.36772e-05
-2.03862e-05
-1.74014e-05
-1.47424e-05
-1.24088e-05
-1.03867e-05
-8.65325e-06
-7.18094e-06
-5.94022e-06
-4.90168e-06
-4.03736e-06
-3.32156e-06
-2.73122e-06
-2.24604e-06
-1.84844e-06
-1.52337e-06
-1.25807e-06
-1.04185e-06
-8.65762e-07
-7.22395e-07
-6.05622e-07
-5.104e-07
-4.32596e-07
-3.6883e-07
-3.16349e-07
-2.72906e-07
-2.36671e-07
-2.06151e-07
-1.80129e-07
-1.57623e-07
-1.37846e-07
-1.20182e-07
-1.04153e-07
-8.93973e-08
-7.5652e-08
-6.27326e-08
-5.05222e-08
-3.896e-08
-2.80317e-08
-1.76459e-08
-8.62994e-09
3.59086e-05
3.586e-05
3.57358e-05
3.55364e-05
3.52588e-05
3.48918e-05
3.44196e-05
3.38233e-05
3.308e-05
3.21624e-05
3.10386e-05
2.96719e-05
2.80212e-05
2.60418e-05
2.36863e-05
2.09073e-05
1.766e-05
1.39068e-05
9.62337e-06
4.80524e-06
-5.2372e-07
-6.30316e-06
-1.24288e-05
-1.87479e-05
-2.50593e-05
-3.11204e-05
-3.66631e-05
-4.14175e-05
-4.51425e-05
-4.76577e-05
-4.887e-05
-4.87875e-05
-4.75173e-05
-4.52463e-05
-4.22105e-05
-3.86612e-05
-3.48357e-05
-3.0938e-05
-2.71287e-05
-2.35243e-05
-2.02008e-05
-1.72005e-05
-1.45388e-05
-1.22119e-05
-1.02026e-05
-8.48555e-06
-7.03134e-06
-5.80899e-06
-4.78816e-06
-3.94031e-06
-3.23941e-06
-2.66226e-06
-2.18858e-06
-1.80086e-06
-1.48419e-06
-1.22596e-06
-1.01563e-06
-8.44435e-07
-7.05099e-07
-5.91629e-07
-4.99098e-07
-4.23474e-07
-3.61468e-07
-3.10402e-07
-2.68097e-07
-2.32775e-07
-2.02986e-07
-1.77551e-07
-1.55517e-07
-1.36124e-07
-1.18777e-07
-1.03017e-07
-8.85001e-08
-7.49707e-08
-6.22496e-08
-5.02183e-08
-3.88086e-08
-2.79939e-08
-1.76704e-08
-8.64797e-09
3.59666e-05
3.59199e-05
3.58004e-05
3.56085e-05
3.53411e-05
3.49872e-05
3.45314e-05
3.39549e-05
3.32351e-05
3.23448e-05
3.12519e-05
2.99194e-05
2.83055e-05
2.63642e-05
2.40462e-05
2.13012e-05
1.80806e-05
1.43421e-05
1.00557e-05
5.21095e-06
-1.74416e-07
-6.04481e-06
-1.22984e-05
-1.87807e-05
-2.52838e-05
-3.15523e-05
-3.72996e-05
-4.22338e-05
-4.60917e-05
-4.86751e-05
-4.98819e-05
-4.97224e-05
-4.83169e-05
-4.58726e-05
-4.26489e-05
-3.89176e-05
-3.49311e-05
-3.09018e-05
-2.69932e-05
-2.33204e-05
-1.99555e-05
-1.69358e-05
-1.42715e-05
-1.1954e-05
-9.96191e-06
-8.26673e-06
-6.83639e-06
-5.63818e-06
-4.64055e-06
-3.81421e-06
-3.13273e-06
-2.57277e-06
-2.11404e-06
-1.73916e-06
-1.43338e-06
-1.18432e-06
-9.81638e-07
-8.16777e-07
-6.82659e-07
-5.73459e-07
-4.84403e-07
-4.11593e-07
-3.51856e-07
-3.02614e-07
-2.61773e-07
-2.27623e-07
-1.98774e-07
-1.7409e-07
-1.5266e-07
-1.33758e-07
-1.16817e-07
-1.01405e-07
-8.71951e-08
-7.39463e-08
-6.14844e-08
-4.96892e-08
-3.84836e-08
-2.7827e-08
-1.76029e-08
-8.60837e-09
3.60365e-05
3.5992e-05
3.58783e-05
3.56954e-05
3.54404e-05
3.51024e-05
3.46664e-05
3.41139e-05
3.34226e-05
3.25653e-05
3.151e-05
3.02192e-05
2.86503e-05
2.67558e-05
2.4484e-05
2.17812e-05
1.85943e-05
1.48753e-05
1.05871e-05
5.71165e-06
2.59266e-07
-5.72075e-06
-1.21298e-05
-1.8812e-05
-2.55513e-05
-3.20765e-05
-3.80782e-05
-4.32367e-05
-4.72607e-05
-4.99294e-05
-5.11291e-05
-5.08727e-05
-4.92974e-05
-4.66369e-05
-4.31796e-05
-3.92234e-05
-3.50393e-05
-3.08496e-05
-2.68209e-05
-2.3066e-05
-1.96522e-05
-1.66103e-05
-1.39442e-05
-1.16391e-05
-9.66885e-06
-8.00077e-06
-6.59984e-06
-5.43121e-06
-4.46189e-06
-3.66174e-06
-3.00386e-06
-2.46475e-06
-2.02414e-06
-1.66479e-06
-1.37219e-06
-1.1342e-06
-9.40753e-07
-7.83542e-07
-6.55723e-07
-5.51678e-07
-4.66818e-07
-3.97406e-07
-3.4041e-07
-2.93374e-07
-2.54304e-07
-2.21576e-07
-1.93865e-07
-1.70093e-07
-1.49393e-07
-1.31083e-07
-1.14631e-07
-9.96348e-08
-8.57906e-08
-7.28719e-08
-6.07113e-08
-4.91865e-08
-3.82109e-08
-2.77287e-08
-1.76081e-08
-8.62854e-09
3.61167e-05
3.60748e-05
3.59676e-05
3.57951e-05
3.55543e-05
3.52346e-05
3.48214e-05
3.42966e-05
3.36381e-05
3.28191e-05
3.18073e-05
3.0565e-05
2.90486e-05
2.72088e-05
2.49914e-05
2.23388e-05
1.91927e-05
1.54983e-05
1.12104e-05
6.3019e-06
7.74076e-07
-5.33152e-06
-1.19207e-05
-1.88363e-05
-2.58533e-05
-3.26822e-05
-3.89864e-05
-4.44128e-05
-4.86358e-05
-5.14067e-05
-5.25973e-05
-5.22242e-05
-5.04449e-05
-4.75258e-05
-4.37909e-05
-3.95693e-05
-3.51536e-05
-3.07777e-05
-2.66106e-05
-2.27624e-05
-1.92939e-05
-1.62283e-05
-1.35618e-05
-1.12726e-05
-9.32872e-06
-7.69284e-06
-6.3265e-06
-5.19244e-06
-4.25609e-06
-3.48631e-06
-2.85573e-06
-2.34067e-06
-1.92093e-06
-1.57945e-06
-1.30198e-06
-1.0767e-06
-8.93838e-07
-7.4539e-07
-6.24778e-07
-5.26627e-07
-4.46561e-07
-3.81028e-07
-3.27161e-07
-2.82644e-07
-2.45599e-07
-2.14497e-07
-1.8809e-07
-1.65362e-07
-1.45504e-07
-1.27876e-07
-1.11991e-07
-9.74781e-08
-8.40608e-08
-7.1529e-08
-5.97221e-08
-4.85161e-08
-3.78143e-08
-2.7546e-08
-1.75645e-08
-8.62906e-09
3.62054e-05
3.61663e-05
3.60663e-05
3.59053e-05
3.56802e-05
3.53808e-05
3.49929e-05
3.44989e-05
3.38769e-05
3.31005e-05
3.21373e-05
3.09493e-05
2.94919e-05
2.7714e-05
2.55585e-05
2.29637e-05
1.98653e-05
1.6201e-05
1.19165e-05
6.97435e-06
1.36515e-06
-4.87879e-06
-1.1669e-05
-1.88476e-05
-2.61801e-05
-3.33564e-05
-4.00088e-05
-4.5745e-05
-5.01989e-05
-5.30885e-05
-5.42681e-05
-5.37584e-05
-5.17418e-05
-4.85233e-05
-4.44692e-05
-3.99448e-05
-3.52672e-05
-3.06825e-05
-2.63621e-05
-2.24119e-05
-1.8885e-05
-1.57955e-05
-1.31307e-05
-1.08612e-05
-8.9481e-06
-7.34916e-06
-6.02212e-06
-4.92707e-06
-4.02772e-06
-3.29191e-06
-2.69179e-06
-2.20351e-06
-1.80695e-06
-1.4853e-06
-1.22461e-06
-1.0134e-06
-8.42258e-07
-7.03504e-07
-5.90865e-07
-4.99233e-07
-4.24466e-07
-3.63222e-07
-3.12814e-07
-2.71081e-07
-2.36275e-07
-2.0697e-07
-1.82001e-07
-1.60423e-07
-1.41483e-07
-1.24595e-07
-1.09317e-07
-9.53147e-08
-8.2341e-08
-7.02037e-08
-5.87502e-08
-4.78553e-08
-3.74133e-08
-2.73406e-08
-1.74794e-08
-8.58238e-09
3.63003e-05
3.62643e-05
3.61721e-05
3.60234e-05
3.58152e-05
3.55376e-05
3.5177e-05
3.4716e-05
3.41335e-05
3.34031e-05
3.24927e-05
3.13637e-05
2.99707e-05
2.82607e-05
2.61737e-05
2.36433e-05
2.05992e-05
1.69708e-05
1.26938e-05
7.71913e-06
2.02532e-06
-4.36611e-06
-1.13738e-05
-1.88402e-05
-2.65209e-05
-3.40839e-05
-4.11262e-05
-4.72114e-05
-5.19264e-05
-5.49503e-05
-5.61171e-05
-5.54518e-05
-5.31661e-05
-4.96099e-05
-4.51986e-05
-4.03381e-05
-3.53729e-05
-3.05613e-05
-2.60764e-05
-2.20183e-05
-1.84312e-05
-1.53189e-05
-1.26588e-05
-1.04127e-05
-8.53468e-06
-6.97697e-06
-5.69328e-06
-4.64094e-06
-3.78189e-06
-3.08294e-06
-2.51574e-06
-2.05634e-06
-1.68474e-06
-1.38439e-06
-1.14169e-06
-9.45546e-07
-7.86941e-07
-6.5855e-07
-5.54426e-07
-4.69751e-07
-4.00638e-07
-3.43967e-07
-2.97251e-07
-2.58495e-07
-2.26088e-07
-1.98714e-07
-1.75299e-07
-1.54968e-07
-1.37031e-07
-1.20957e-07
-1.06352e-07
-9.29231e-08
-8.04511e-08
-6.87632e-08
-5.77152e-08
-4.71805e-08
-3.70458e-08
-2.72148e-08
-1.75156e-08
-8.67287e-09
3.63993e-05
3.63665e-05
3.62824e-05
3.61466e-05
3.59561e-05
3.57013e-05
3.53691e-05
3.49429e-05
3.44019e-05
3.37199e-05
3.28652e-05
3.17987e-05
3.04742e-05
2.88368e-05
2.68236e-05
2.43635e-05
2.13796e-05
1.77929e-05
1.35281e-05
8.52362e-06
2.74474e-06
-3.79937e-06
-1.10359e-05
-1.8809e-05
-2.68645e-05
-3.48471e-05
-4.23159e-05
-4.8785e-05
-5.37886e-05
-5.69614e-05
-5.81134e-05
-5.7275e-05
-5.4691e-05
-5.0763e-05
-4.59613e-05
-4.07374e-05
-3.54642e-05
-3.04126e-05
-2.5756e-05
-2.15873e-05
-1.79403e-05
-1.48075e-05
-1.21555e-05
-9.9366e-06
-8.09748e-06
-6.58459e-06
-5.34752e-06
-4.34078e-06
-3.52451e-06
-2.86454e-06
-2.33205e-06
-1.90301e-06
-1.55759e-06
-1.27955e-06
-1.05566e-06
-8.75268e-07
-7.2975e-07
-6.12169e-07
-5.16923e-07
-4.39494e-07
-3.76261e-07
-3.24343e-07
-2.81457e-07
-2.45783e-07
-2.15854e-07
-1.90468e-07
-1.68641e-07
-1.49574e-07
-1.32642e-07
-1.17372e-07
-1.0342e-07
-9.0534e-08
-7.85274e-08
-6.72465e-08
-5.65559e-08
-4.63295e-08
-3.64479e-08
-2.68075e-08
-1.72357e-08
-8.47367e-09
3.65e-05
3.64704e-05
3.63946e-05
3.6272e-05
3.60995e-05
3.5868e-05
3.5565e-05
3.51743e-05
3.46757e-05
3.40436e-05
3.32461e-05
3.22443e-05
3.09908e-05
2.94293e-05
2.74936e-05
2.51081e-05
2.21895e-05
1.86496e-05
1.44021e-05
9.37209e-06
3.51042e-06
-3.18739e-06
-1.06587e-05
-1.87503e-05
-2.71994e-05
-3.56267e-05
-4.35512e-05
-5.04333e-05
-5.5749e-05
-5.90831e-05
-6.02189e-05
-5.91922e-05
-5.6285e-05
-5.19567e-05
-4.67385e-05
-4.11306e-05
-3.55358e-05
-3.02368e-05
-2.54056e-05
-2.11268e-05
-1.74222e-05
-1.42722e-05
-1.16317e-05
-9.44353e-06
-7.64643e-06
-6.18106e-06
-4.99286e-06
-4.03355e-06
-3.26153e-06
-2.64169e-06
-2.14482e-06
-1.74685e-06
-1.42816e-06
-1.17284e-06
-9.68103e-07
-8.03704e-07
-6.71471e-07
-5.64858e-07
-4.78615e-07
-4.08534e-07
-3.51267e-07
-3.04177e-07
-2.65191e-07
-2.32667e-07
-2.05283e-07
-1.81952e-07
-1.6178e-07
-1.44042e-07
-1.2818e-07
-1.13779e-07
-1.00545e-07
-8.82694e-08
-7.6795e-08
-6.59868e-08
-5.57172e-08
-4.586e-08
-3.62906e-08
-2.68966e-08
-1.749e-08
-8.76487e-09
3.66001e-05
3.65737e-05
3.65061e-05
3.63966e-05
3.6242e-05
3.60337e-05
3.57597e-05
3.54045e-05
3.49484e-05
3.43662e-05
3.36263e-05
3.26897e-05
3.15082e-05
3.00238e-05
2.81676e-05
2.58596e-05
2.30097e-05
1.95211e-05
1.5296e-05
1.02457e-05
4.30599e-06
-2.54232e-06
-1.02481e-05
-1.86624e-05
-2.75147e-05
-3.64022e-05
-4.48021e-05
-5.21183e-05
-5.77638e-05
-6.12691e-05
-6.23876e-05
-6.11608e-05
-5.79116e-05
-5.31625e-05
-4.75101e-05
-4.15063e-05
-3.5584e-05
-3.00364e-05
-2.50324e-05
-2.06469e-05
-1.68888e-05
-1.37255e-05
-1.11002e-05
-8.94557e-06
-7.19272e-06
-5.77651e-06
-4.63832e-06
-3.72719e-06
-2.99988e-06
-2.42041e-06
-1.95925e-06
-1.59236e-06
-1.30034e-06
-1.06766e-06
-8.81949e-07
-7.33433e-07
-6.14371e-07
-5.18617e-07
-4.41271e-07
-3.78435e-07
-3.27036e-07
-2.84678e-07
-2.495e-07
-2.20039e-07
-1.95114e-07
-1.73752e-07
-1.55146e-07
-1.38647e-07
-1.23761e-07
-1.10135e-07
-9.75264e-08
-8.57694e-08
-7.47361e-08
-6.43091e-08
-5.43689e-08
-4.47896e-08
-3.5444e-08
-2.62183e-08
-1.69369e-08
-8.34176e-09
3.66971e-05
3.6674e-05
3.66143e-05
3.65175e-05
3.63802e-05
3.61944e-05
3.59487e-05
3.5628e-05
3.52133e-05
3.46798e-05
3.39964e-05
3.31238e-05
3.20134e-05
3.06056e-05
2.88289e-05
2.6599e-05
2.38197e-05
2.03855e-05
1.61871e-05
1.11224e-05
5.11168e-06
-1.87983e-06
-9.81353e-06
-1.85461e-05
-2.78009e-05
-3.71522e-05
-4.60355e-05
-5.37964e-05
-5.97819e-05
-6.34646e-05
-6.45655e-05
-6.31318e-05
-5.95299e-05
-5.43494e-05
-4.82561e-05
-4.18546e-05
-3.56074e-05
-2.98165e-05
-2.46462e-05
-2.01601e-05
-1.6354e-05
-1.31817e-05
-1.05746e-05
-8.45543e-06
-6.74782e-06
-5.38104e-06
-4.29261e-06
-3.42907e-06
-2.74568e-06
-2.20572e-06
-1.77938e-06
-1.44271e-06
-1.17657e-06
-9.65814e-07
-7.98516e-07
-6.65353e-07
-5.59021e-07
-4.73764e-07
-4.05025e-07
-3.49205e-07
-3.03498e-07
-2.65745e-07
-2.34292e-07
-2.07848e-07
-1.85367e-07
-1.65979e-07
-1.48962e-07
-1.33738e-07
-1.19877e-07
-1.07084e-07
-9.51668e-08
-8.39999e-08
-7.34825e-08
-6.35122e-08
-5.39745e-08
-4.47429e-08
-3.56864e-08
-2.66848e-08
-1.75425e-08
-8.92744e-09
3.67889e-05
3.67687e-05
3.67166e-05
3.66317e-05
3.65108e-05
3.63464e-05
3.61273e-05
3.58393e-05
3.54639e-05
3.49768e-05
3.43472e-05
3.35358e-05
3.24935e-05
3.11596e-05
2.946e-05
2.73068e-05
2.45977e-05
2.12191e-05
1.7051e-05
1.19778e-05
5.90462e-06
-1.21901e-06
-9.36778e-06
-1.84052e-05
-2.805e-05
-3.78553e-05
-4.72161e-05
-5.54197e-05
-6.1746e-05
-6.56075e-05
-6.66912e-05
-6.50498e-05
-6.10947e-05
-5.54849e-05
-4.89566e-05
-4.21673e-05
-3.56071e-05
-2.95849e-05
-2.42592e-05
-1.96814e-05
-1.58337e-05
-1.26567e-05
-1.00699e-05
-7.98707e-06
-6.32432e-06
-5.00583e-06
-3.96555e-06
-3.14774e-06
-2.50635e-06
-2.00401e-06
-1.61074e-06
-1.30268e-06
-1.06099e-06
-8.70889e-07
-7.20902e-07
-6.02147e-07
-5.07735e-07
-4.32283e-07
-3.71557e-07
-3.22242e-07
-2.81785e-07
-2.48255e-07
-2.20195e-07
-1.96476e-07
-1.76181e-07
-1.58535e-07
-1.42895e-07
-1.2875e-07
-1.15731e-07
-1.03601e-07
-9.22191e-08
-8.1498e-08
-7.1362e-08
-6.17217e-08
-5.24661e-08
-4.3468e-08
-3.45949e-08
-2.57297e-08
-1.67017e-08
-8.2603e-09
3.68732e-05
3.68557e-05
3.68105e-05
3.67366e-05
3.66307e-05
3.64857e-05
3.62912e-05
3.60332e-05
3.56939e-05
3.52495e-05
3.46695e-05
3.39148e-05
3.29358e-05
3.16709e-05
3.00438e-05
2.79631e-05
2.53215e-05
2.19976e-05
1.78617e-05
1.27855e-05
6.65953e-06
-5.81879e-07
-8.92681e-06
-1.82465e-05
-2.82566e-05
-3.84914e-05
-4.83079e-05
-5.69371e-05
-6.35935e-05
-6.76294e-05
-6.86974e-05
-6.68551e-05
-6.25587e-05
-5.65362e-05
-4.95934e-05
-4.24383e-05
-3.55867e-05
-2.9352e-05
-2.38857e-05
-1.92271e-05
-1.53447e-05
-1.21665e-05
-9.6013e-06
-7.55388e-06
-5.93394e-06
-4.66089e-06
-3.66555e-06
-2.89016e-06
-2.28754e-06
-1.81981e-06
-1.45687e-06
-1.17501e-06
-9.55656e-07
-7.84414e-07
-6.50221e-07
-5.44611e-07
-4.61086e-07
-3.94602e-07
-3.41219e-07
-2.97878e-07
-2.6226e-07
-2.32643e-07
-2.0775e-07
-1.86601e-07
-1.68389e-07
-1.52429e-07
-1.38142e-07
-1.25078e-07
-1.12924e-07
-1.01497e-07
-9.07026e-08
-8.04873e-08
-7.07974e-08
-6.15523e-08
-5.26423e-08
-4.39369e-08
-3.53e-08
-2.66091e-08
-1.76678e-08
-9.12849e-09
3.69481e-05
3.6933e-05
3.68938e-05
3.68296e-05
3.6737e-05
3.66092e-05
3.64362e-05
3.62049e-05
3.58975e-05
3.54909e-05
3.4955e-05
3.42508e-05
3.33284e-05
3.21253e-05
3.05637e-05
2.8549e-05
2.59694e-05
2.2697e-05
1.85932e-05
1.35184e-05
7.34978e-06
7.61844e-09
-8.50906e-06
-1.80794e-05
-2.84177e-05
-3.9042e-05
-4.92752e-05
-5.82968e-05
-6.52595e-05
-6.94587e-05
-7.05134e-05
-6.84853e-05
-6.38733e-05
-5.74712e-05
-5.01499e-05
-4.26643e-05
-3.55523e-05
-2.91303e-05
-2.35419e-05
-1.88146e-05
-1.49046e-05
-1.17281e-05
-9.18426e-06
-7.16994e-06
-5.58911e-06
-4.35711e-06
-3.40203e-06
-2.66443e-06
-2.09621e-06
-1.65908e-06
-1.32288e-06
-1.06404e-06
-8.64262e-07
-7.09502e-07
-5.89072e-07
-4.94888e-07
-4.20796e-07
-3.62054e-07
-3.14977e-07
-2.76734e-07
-2.4521e-07
-2.18872e-07
-1.96605e-07
-1.77561e-07
-1.61034e-07
-1.46412e-07
-1.33174e-07
-1.20922e-07
-1.09397e-07
-9.84624e-08
-8.80676e-08
-7.81899e-08
-6.87935e-08
-5.98049e-08
-5.11133e-08
-4.25851e-08
-3.40828e-08
-2.54898e-08
-1.6642e-08
-8.29775e-09
3.70118e-05
3.69987e-05
3.69647e-05
3.69085e-05
3.6827e-05
3.67137e-05
3.6559e-05
3.63499e-05
3.60695e-05
3.56949e-05
3.51962e-05
3.45347e-05
3.36604e-05
3.251e-05
3.10044e-05
2.90466e-05
2.6521e-05
2.32943e-05
1.92203e-05
1.41499e-05
7.9489e-06
5.2499e-07
-8.13426e-06
-1.79157e-05
-2.85329e-05
-3.94914e-05
-5.0085e-05
-5.94485e-05
-6.668e-05
-7.10239e-05
-7.20685e-05
-6.98789e-05
-6.49918e-05
-5.82598e-05
-5.0612e-05
-4.28439e-05
-3.55116e-05
-2.8933e-05
-2.32439e-05
-1.84613e-05
-1.45302e-05
-1.13571e-05
-8.83268e-06
-6.8473e-06
-5.3001e-06
-4.10306e-06
-3.18207e-06
-2.47632e-06
-1.93699e-06
-1.5255e-06
-1.21167e-06
-9.72054e-07
-7.88618e-07
-6.47605e-07
-5.38659e-07
-4.54018e-07
-3.87822e-07
-3.35576e-07
-2.93807e-07
-2.59868e-07
-2.31816e-07
-2.08274e-07
-1.88267e-07
-1.71055e-07
-1.56016e-07
-1.42595e-07
-1.30318e-07
-1.18831e-07
-1.07915e-07
-9.74756e-08
-8.74967e-08
-7.7981e-08
-6.89067e-08
-6.02034e-08
-5.17581e-08
-4.34323e-08
-3.50849e-08
-2.65948e-08
-1.77708e-08
-9.27167e-09
3.70629e-05
3.70514e-05
3.70213e-05
3.69715e-05
3.68988e-05
3.67968e-05
3.66563e-05
3.64648e-05
3.62055e-05
3.5856e-05
3.53866e-05
3.47588e-05
3.39224e-05
3.28138e-05
3.13527e-05
2.94404e-05
2.69584e-05
2.37691e-05
1.97206e-05
1.46561e-05
8.43235e-06
9.46997e-07
-7.82184e-06
-1.77675e-05
-2.86042e-05
-3.98274e-05
-5.07086e-05
-6.03469e-05
-6.7796e-05
-7.22584e-05
-7.32968e-05
-7.09784e-05
-6.58712e-05
-5.88757e-05
-5.09686e-05
-4.29778e-05
-3.54734e-05
-2.87735e-05
-2.30075e-05
-1.81832e-05
-1.42372e-05
-1.1068e-05
-8.55973e-06
-6.59757e-06
-5.07699e-06
-3.90742e-06
-3.01306e-06
-2.33209e-06
-1.81516e-06
-1.42349e-06
-1.12689e-06
-9.02059e-07
-7.31137e-07
-6.00616e-07
-5.004e-07
-4.22986e-07
-3.62741e-07
-3.15364e-07
-2.77541e-07
-2.4677e-07
-2.2124e-07
-1.99699e-07
-1.8128e-07
-1.65334e-07
-1.51303e-07
-1.38678e-07
-1.27021e-07
-1.16009e-07
-1.05457e-07
-9.53028e-08
-8.55575e-08
-7.62435e-08
-6.73486e-08
-5.88038e-08
-5.04924e-08
-4.22718e-08
-3.4e-08
-2.55618e-08
-1.67977e-08
-8.47253e-09
3.71003e-05
3.70898e-05
3.70625e-05
3.70171e-05
3.69505e-05
3.68564e-05
3.67259e-05
3.65466e-05
3.63021e-05
3.597e-05
3.55212e-05
3.49169e-05
3.41071e-05
3.30278e-05
3.1598e-05
2.97179e-05
2.7267e-05
2.41048e-05
2.00754e-05
1.50168e-05
8.77933e-06
1.25363e-06
-7.58899e-06
-1.76467e-05
-2.86344e-05
-4.00412e-05
-5.11233e-05
-6.09547e-05
-6.8558e-05
-7.31058e-05
-7.41422e-05
-7.17356e-05
-6.64757e-05
-5.92976e-05
-5.12114e-05
-4.30674e-05
-3.54455e-05
-2.86635e-05
-2.28456e-05
-1.79938e-05
-1.40383e-05
-1.08723e-05
-8.37532e-06
-6.42923e-06
-4.92693e-06
-3.77612e-06
-2.89988e-06
-2.23574e-06
-1.73399e-06
-1.35573e-06
-1.07079e-06
-8.55937e-07
-6.93464e-07
-5.70023e-07
-4.75701e-07
-4.03171e-07
-3.46955e-07
-3.02882e-07
-2.67743e-07
-2.3913e-07
-2.1532e-07
-1.95147e-07
-1.77821e-07
-1.62754e-07
-1.49431e-07
-1.37376e-07
-1.26172e-07
-1.15518e-07
-1.05249e-07
-9.53238e-08
-8.57732e-08
-7.66315e-08
-6.78919e-08
-5.94847e-08
-5.12894e-08
-4.31592e-08
-3.49487e-08
-2.65394e-08
-1.77501e-08
-9.27169e-09
3.7123e-05
3.71131e-05
3.70874e-05
3.70444e-05
3.69811e-05
3.68913e-05
3.67661e-05
3.65934e-05
3.63568e-05
3.60342e-05
3.55963e-05
3.50047e-05
3.42092e-05
3.31457e-05
3.17329e-05
2.98703e-05
2.74365e-05
2.42895e-05
2.02714e-05
1.52175e-05
8.97463e-06
1.43e-06
-7.44879e-06
-1.75626e-05
-2.86268e-05
-4.01277e-05
-5.13135e-05
-6.12457e-05
-6.89307e-05
-7.35254e-05
-7.45639e-05
-7.2115e-05
-6.67797e-05
-5.95105e-05
-5.13347e-05
-4.31146e-05
-3.54343e-05
-2.86115e-05
-2.27681e-05
-1.79027e-05
-1.39426e-05
-1.07782e-05
-8.28685e-06
-6.34868e-06
-4.85535e-06
-3.71373e-06
-2.84635e-06
-2.19039e-06
-1.696e-06
-1.32421e-06
-1.04486e-06
-8.34781e-07
-6.76312e-07
-5.56194e-07
-4.64608e-07
-3.94317e-07
-3.39923e-07
-2.97318e-07
-2.63343e-07
-2.35636e-07
-2.12517e-07
-1.92865e-07
-1.75932e-07
-1.61161e-07
-1.48063e-07
-1.36176e-07
-1.25096e-07
-1.14529e-07
-1.04322e-07
-9.44431e-08
-8.49321e-08
-7.58293e-08
-6.71293e-08
-5.87609e-08
-5.05996e-08
-4.24948e-08
-3.42998e-08
-2.58989e-08
-1.71306e-08
-8.75781e-09
3.71307e-05
3.7121e-05
3.70954e-05
3.70527e-05
3.69898e-05
3.69006e-05
3.6776e-05
3.66041e-05
3.63684e-05
3.60469e-05
3.56102e-05
3.502e-05
3.4226e-05
3.31642e-05
3.17533e-05
2.98929e-05
2.74613e-05
2.43169e-05
2.03013e-05
1.52501e-05
9.00997e-06
1.4679e-06
-7.40862e-06
-1.75207e-05
-2.85839e-05
-4.00848e-05
-5.12718e-05
-6.12067e-05
-6.88958e-05
-7.34958e-05
-7.45405e-05
-7.20982e-05
-6.67693e-05
-5.95062e-05
-5.13358e-05
-4.31199e-05
-3.54428e-05
-2.86221e-05
-2.27798e-05
-1.79148e-05
-1.39546e-05
-1.07898e-05
-8.29789e-06
-6.359e-06
-4.86491e-06
-3.72252e-06
-2.85438e-06
-2.19771e-06
-1.70266e-06
-1.33027e-06
-1.05037e-06
-8.39784e-07
-6.80857e-07
-5.60322e-07
-4.68355e-07
-3.97718e-07
-3.43012e-07
-3.00122e-07
-2.65886e-07
-2.37934e-07
-2.14585e-07
-1.94717e-07
-1.77584e-07
-1.62633e-07
-1.49378e-07
-1.37354e-07
-1.26156e-07
-1.15487e-07
-1.05193e-07
-9.52424e-08
-8.56721e-08
-7.65225e-08
-6.77867e-08
-5.93905e-08
-5.12062e-08
-4.30801e-08
-3.48625e-08
-2.64342e-08
-1.76219e-08
-9.15786e-09
3.71234e-05
3.71132e-05
3.70865e-05
3.70421e-05
3.69767e-05
3.68843e-05
3.67557e-05
3.65787e-05
3.63369e-05
3.6008e-05
3.55628e-05
3.49626e-05
3.41574e-05
3.30832e-05
3.16592e-05
2.97854e-05
2.73413e-05
2.41865e-05
2.01649e-05
1.51143e-05
8.88475e-06
1.36663e-06
-7.46927e-06
-1.75218e-05
-2.85065e-05
-3.99135e-05
-5.09994e-05
-6.08387e-05
-6.84542e-05
-7.30177e-05
-7.40724e-05
-7.16852e-05
-6.64446e-05
-5.92846e-05
-5.12141e-05
-4.30829e-05
-3.54704e-05
-2.86944e-05
-2.288e-05
-1.80295e-05
-1.40739e-05
-1.09067e-05
-8.40797e-06
-6.45974e-06
-4.95514e-06
-3.802e-06
-2.92349e-06
-2.25717e-06
-1.75339e-06
-1.37325e-06
-1.08659e-06
-8.70162e-07
-7.06244e-07
-5.81474e-07
-4.85932e-07
-4.12285e-07
-3.55053e-07
-3.10049e-07
-2.74051e-07
-2.44633e-07
-2.20064e-07
-1.99179e-07
-1.81197e-07
-1.65538e-07
-1.51694e-07
-1.39184e-07
-1.2759e-07
-1.166e-07
-1.06046e-07
-9.58844e-08
-8.61426e-08
-7.6853e-08
-6.80034e-08
-5.95163e-08
-5.12611e-08
-4.30812e-08
-3.48241e-08
-2.63678e-08
-1.75392e-08
-9.08571e-09
3.71014e-05
3.70903e-05
3.70612e-05
3.70129e-05
3.69423e-05
3.6843e-05
3.67057e-05
3.65181e-05
3.62633e-05
3.5919e-05
3.54556e-05
3.48345e-05
3.40058e-05
3.29057e-05
3.1454e-05
2.9552e-05
2.70813e-05
2.39041e-05
1.98683e-05
1.48169e-05
8.60608e-06
1.13307e-06
-7.62493e-06
-1.75623e-05
-2.83943e-05
-3.96179e-05
-5.05055e-05
-6.01568e-05
-6.76257e-05
-7.21137e-05
-7.31818e-05
-7.08951e-05
-6.58193e-05
-5.88532e-05
-5.09719e-05
-4.30019e-05
-3.5513e-05
-2.88234e-05
-2.30631e-05
-1.82413e-05
-1.42953e-05
-1.11244e-05
-8.6133e-06
-6.64775e-06
-5.12351e-06
-3.95021e-06
-3.05219e-06
-2.36772e-06
-1.84751e-06
-1.4528e-06
-1.15342e-06
-9.26043e-07
-7.52791e-07
-6.20129e-07
-5.1795e-07
-4.38741e-07
-3.76863e-07
-3.27993e-07
-2.88792e-07
-2.56732e-07
-2.29988e-07
-2.07308e-07
-1.87841e-07
-1.70949e-07
-1.56083e-07
-1.42731e-07
-1.30448e-07
-1.18899e-07
-1.0789e-07
-9.73546e-08
-8.73007e-08
-7.77467e-08
-6.86719e-08
-5.99943e-08
-5.15809e-08
-4.32732e-08
-3.49153e-08
-2.63818e-08
-1.74986e-08
-9.03047e-09
3.70654e-05
3.70528e-05
3.70201e-05
3.69661e-05
3.68876e-05
3.67779e-05
3.66277e-05
3.6424e-05
3.61498e-05
3.57824e-05
3.5292e-05
3.46398e-05
3.37761e-05
3.26374e-05
3.11448e-05
2.92012e-05
2.6691e-05
2.34808e-05
1.94242e-05
1.43716e-05
8.18814e-06
7.80849e-07
-7.86389e-06
-1.76343e-05
-2.82456e-05
-3.92048e-05
-4.98074e-05
-5.91888e-05
-6.64472e-05
-7.08257e-05
-7.19105e-05
-6.97636e-05
-6.49191e-05
-5.82269e-05
-5.06141e-05
-4.28744e-05
-3.55634e-05
-2.89991e-05
-2.33184e-05
-1.85395e-05
-1.46087e-05
-1.14336e-05
-8.90568e-06
-6.91588e-06
-5.36381e-06
-4.16176e-06
-3.23582e-06
-2.52531e-06
-1.98148e-06
-1.56581e-06
-1.24813e-06
-1.00499e-06
-8.18304e-07
-6.74299e-07
-5.62599e-07
-4.75434e-07
-4.0693e-07
-3.52568e-07
-3.08841e-07
-2.73071e-07
-2.43295e-07
-2.18138e-07
-1.96642e-07
-1.78084e-07
-1.61854e-07
-1.47394e-07
-1.3422e-07
-1.21962e-07
-1.10391e-07
-9.94056e-08
-8.89856e-08
-7.91281e-08
-6.97993e-08
-6.09112e-08
-5.2328e-08
-4.38889e-08
-3.54342e-08
-2.68313e-08
-1.78898e-08
-9.34174e-09
3.70164e-05
3.70019e-05
3.69645e-05
3.6903e-05
3.68141e-05
3.6691e-05
3.65237e-05
3.62992e-05
3.59997e-05
3.56023e-05
3.50769e-05
3.43845e-05
3.34754e-05
3.22871e-05
3.07417e-05
2.87449e-05
2.61846e-05
2.29328e-05
1.88505e-05
1.37977e-05
7.65079e-06
3.28961e-07
-8.17011e-06
-1.77273e-05
-2.80587e-05
-3.86845e-05
-4.89291e-05
-5.79733e-05
-6.49692e-05
-6.9211e-05
-7.0315e-05
-6.83394e-05
-6.37798e-05
-5.74267e-05
-5.01487e-05
-4.26985e-05
-3.56133e-05
-2.92097e-05
-2.36323e-05
-1.89103e-05
-1.50013e-05
-1.18228e-05
-9.27504e-06
-7.25556e-06
-5.66893e-06
-4.43089e-06
-3.46979e-06
-2.72635e-06
-2.15259e-06
-1.71029e-06
-1.36931e-06
-1.10607e-06
-9.02242e-07
-7.43744e-07
-6.1987e-07
-5.22521e-07
-4.45532e-07
-3.8413e-07
-3.34591e-07
-2.94045e-07
-2.60358e-07
-2.31994e-07
-2.0786e-07
-1.87127e-07
-1.69103e-07
-1.53172e-07
-1.38802e-07
-1.25579e-07
-1.13229e-07
-1.01609e-07
-9.06611e-08
-8.03561e-08
-7.0643e-08
-6.14255e-08
-5.25648e-08
-4.3898e-08
-3.52625e-08
-2.65225e-08
-1.7495e-08
-8.96711e-09
3.69558e-05
3.69391e-05
3.6896e-05
3.68253e-05
3.6724e-05
3.65846e-05
3.63969e-05
3.61471e-05
3.58173e-05
3.53839e-05
3.48165e-05
3.40759e-05
3.31128e-05
3.18655e-05
3.02579e-05
2.81984e-05
2.55795e-05
2.22799e-05
1.81693e-05
1.31187e-05
7.01786e-06
-2.00156e-07
-8.52505e-06
-1.783e-05
-2.78328e-05
-3.80701e-05
-4.79005e-05
-5.65563e-05
-6.32514e-05
-6.73367e-05
-6.84617e-05
-6.66801e-05
-6.24444e-05
-5.6479e-05
-4.95866e-05
-4.24732e-05
-3.56535e-05
-2.94411e-05
-2.39887e-05
-1.93371e-05
-1.54567e-05
-1.2277e-05
-9.70775e-06
-7.65474e-06
-6.02833e-06
-4.74844e-06
-3.74618e-06
-2.96402e-06
-2.35493e-06
-1.88111e-06
-1.51251e-06
-1.22542e-06
-1.00122e-06
-8.255e-07
-6.87161e-07
-5.77729e-07
-4.90689e-07
-4.20968e-07
-3.64582e-07
-3.18432e-07
-2.80175e-07
-2.48087e-07
-2.20914e-07
-1.97696e-07
-1.77645e-07
-1.60072e-07
-1.44387e-07
-1.30122e-07
-1.16951e-07
-1.04679e-07
-9.32054e-08
-8.24667e-08
-7.23908e-08
-6.28699e-08
-5.37605e-08
-4.48963e-08
-3.61099e-08
-2.72564e-08
-1.81291e-08
-9.46223e-09
3.68852e-05
3.68659e-05
3.68163e-05
3.67353e-05
3.66196e-05
3.64616e-05
3.62505e-05
3.5972e-05
3.56076e-05
3.51333e-05
3.45181e-05
3.37231e-05
3.2699e-05
3.13854e-05
2.97081e-05
2.7579e-05
2.48959e-05
2.15447e-05
1.74051e-05
1.23606e-05
6.31532e-06
-7.82552e-07
-8.90953e-06
-1.79313e-05
-2.75689e-05
-3.73778e-05
-4.67549e-05
-5.49885e-05
-6.13582e-05
-6.52747e-05
-6.64217e-05
-6.48477e-05
-6.09601e-05
-5.5414e-05
-4.89422e-05
-4.21999e-05
-3.56763e-05
-2.96801e-05
-2.43711e-05
-1.98026e-05
-1.59583e-05
-1.27804e-05
-1.01899e-05
-8.10132e-06
-6.43176e-06
-5.10588e-06
-4.05804e-06
-3.23274e-06
-2.58412e-06
-2.07494e-06
-1.67526e-06
-1.36125e-06
-1.11404e-06
-9.1881e-07
-7.64066e-07
-6.4091e-07
-5.4244e-07
-4.63241e-07
-3.99036e-07
-3.46467e-07
-3.02954e-07
-2.66566e-07
-2.35864e-07
-2.09745e-07
-1.87309e-07
-1.67784e-07
-1.50513e-07
-1.34969e-07
-1.20768e-07
-1.07662e-07
-9.54992e-08
-8.41804e-08
-7.36084e-08
-6.36619e-08
-5.41904e-08
-4.5024e-08
-3.59912e-08
-2.69439e-08
-1.76846e-08
-9.01559e-09
3.68066e-05
3.67845e-05
3.67276e-05
3.66351e-05
3.65037e-05
3.63254e-05
3.60886e-05
3.57786e-05
3.53764e-05
3.48572e-05
3.41901e-05
3.33358e-05
3.22458e-05
3.08607e-05
2.91087e-05
2.69057e-05
2.4155e-05
2.07509e-05
1.65837e-05
1.15502e-05
5.5695e-06
-1.39456e-06
-9.30537e-06
-1.80219e-05
-2.727e-05
-3.66262e-05
-4.5528e-05
-5.3322e-05
-5.93547e-05
-6.30968e-05
-6.42657e-05
-6.29046e-05
-5.93755e-05
-5.42639e-05
-4.8232e-05
-4.18823e-05
-3.56758e-05
-2.99144e-05
-2.47638e-05
-2.02892e-05
-1.64882e-05
-1.33161e-05
-1.07057e-05
-8.58111e-06
-6.86661e-06
-5.49215e-06
-4.39572e-06
-3.52414e-06
-2.83292e-06
-2.28547e-06
-1.85208e-06
-1.50881e-06
-1.23652e-06
-1.02002e-06
-8.47374e-07
-7.09246e-07
-5.98315e-07
-5.08797e-07
-4.36093e-07
-3.76561e-07
-3.27367e-07
-2.86351e-07
-2.51877e-07
-2.2268e-07
-1.97736e-07
-1.76178e-07
-1.57276e-07
-1.40435e-07
-1.25209e-07
-1.11291e-07
-9.84795e-08
-8.66313e-08
-7.56214e-08
-6.53111e-08
-5.55404e-08
-4.61329e-08
-3.69107e-08
-2.77158e-08
-1.83279e-08
-9.50023e-09
3.67219e-05
3.66968e-05
3.66323e-05
3.65276e-05
3.63795e-05
3.61794e-05
3.59154e-05
3.5572e-05
3.51296e-05
3.45632e-05
3.38413e-05
3.29248e-05
3.17657e-05
3.03061e-05
2.84769e-05
2.61979e-05
2.33791e-05
1.99229e-05
1.57309e-05
1.07136e-05
4.80557e-06
-2.01421e-06
-9.69658e-06
-1.80949e-05
-2.69413e-05
-3.58352e-05
-4.42557e-05
-5.16074e-05
-5.73031e-05
-6.0871e-05
-6.20611e-05
-6.09108e-05
-5.77383e-05
-5.3062e-05
-4.74751e-05
-4.15268e-05
-3.56488e-05
-3.0134e-05
-2.51527e-05
-2.07809e-05
-1.70297e-05
-1.3868e-05
-1.12403e-05
-9.08074e-06
-7.3212e-06
-5.89727e-06
-4.75086e-06
-3.83135e-06
-3.09577e-06
-2.50832e-06
-2.03957e-06
-1.66554e-06
-1.36683e-06
-1.12788e-06
-9.3631e-07
-7.82331e-07
-6.58192e-07
-5.57719e-07
-4.75974e-07
-4.09016e-07
-3.53745e-07
-3.07762e-07
-2.69224e-07
-2.36694e-07