/*--------------------------------*- C++ -*----------------------------------*\
| =========                 |                                                 |
| \\      /  F ield         | OpenFOAM: The Open Source CFD Toolbox           |
|  \\    /   O peration     | Version:  2512                                  |
|   \\  /    A nd           | Website:  www.openfoam.com                      |
|    \\/     M anipulation  |                                                 |
\*---------------------------------------------------------------------------*/
FoamFile
{
    version     2.0;
    format      ascii;
    arch        "LSB;label=32;scalar=64";
    class       volScalarField;
    location    "100";
    object      p;
}
// * * * * * * * * * * * * * * * * * * * * * * * * * * * * * * * * * * * * * //

dimensions      [0 2 -2 0 0 0 0];

internalField   nonuniform List<scalar> 
248793
(
1.62754e-05
1.62588e-05
1.62161e-05
1.61476e-05
1.60528e-05
1.59285e-05
1.57697e-05
1.55702e-05
1.53223e-05
1.5017e-05
1.46433e-05
1.41892e-05
1.36412e-05
1.2985e-05
1.22054e-05
1.12875e-05
1.02174e-05
8.98397e-06
7.58001e-06
6.00454e-06
4.26485e-06
2.3788e-06
3.76743e-07
-1.6973e-06
-3.78593e-06
-5.82047e-06
-7.7251e-06
-9.42302e-06
-1.0844e-05
-1.19325e-05
-1.26552e-05
-1.30043e-05
-1.29986e-05
-1.26789e-05
-1.21023e-05
-1.13336e-05
-1.04377e-05
-9.47408e-06
-8.49269e-06
-7.5327e-06
-6.62237e-06
-5.78021e-06
-5.01657e-06
-4.3354e-06
-3.73595e-06
-3.21428e-06
-2.76448e-06
-2.37956e-06
-2.05217e-06
-1.77507e-06
-1.5414e-06
-1.34489e-06
-1.17996e-06
-1.04172e-06
-9.25915e-07
-8.2887e-07
-7.47404e-07
-6.78762e-07
-6.20556e-07
-5.70732e-07
-5.27522e-07
-4.89423e-07
-4.55145e-07
-4.23596e-07
-3.93852e-07
-3.65163e-07
-3.36942e-07
-3.08787e-07
-2.80475e-07
-2.51959e-07
-2.23351e-07
-1.94889e-07
-1.66893e-07
-1.39726e-07
-1.13736e-07
-8.92442e-08
-6.65138e-08
-4.57889e-08
-2.71474e-08
-1.21963e-08
1.62801e-05
1.62637e-05
1.62213e-05
1.61535e-05
1.60596e-05
1.59363e-05
1.57788e-05
1.5581e-05
1.53351e-05
1.5032e-05
1.4661e-05
1.42098e-05
1.36651e-05
1.30121e-05
1.22358e-05
1.13209e-05
1.02533e-05
9.0213e-06
7.61735e-06
6.03996e-06
4.29594e-06
2.40277e-06
3.90624e-07
-1.69639e-06
-3.80036e-06
-5.85164e-06
-7.77304e-06
-9.48605e-06
-1.09188e-05
-1.20144e-05
-1.27386e-05
-1.30836e-05
-1.3069e-05
-1.27371e-05
-1.21465e-05
-1.13636e-05
-1.04547e-05
-9.47992e-06
-8.48975e-06
-7.52332e-06
-6.60869e-06
-5.76406e-06
-4.99939e-06
-4.31825e-06
-3.71958e-06
-3.19916e-06
-2.75086e-06
-2.36754e-06
-2.04174e-06
-1.76614e-06
-1.53384e-06
-1.33855e-06
-1.17467e-06
-1.03733e-06
-9.22277e-07
-8.25863e-07
-7.44917e-07
-6.76695e-07
-6.18821e-07
-5.69253e-07
-5.2624e-07
-4.88291e-07
-4.54134e-07
-4.22688e-07
-3.93041e-07
-3.64446e-07
-3.36322e-07
-3.08266e-07
-2.80054e-07
-2.5164e-07
-2.23132e-07
-1.94767e-07
-1.66864e-07
-1.39782e-07
-1.13869e-07
-8.94407e-08
-6.67547e-08
-4.60404e-08
-2.73669e-08
-1.22766e-08
1.62892e-05
1.62731e-05
1.62316e-05
1.6165e-05
1.60727e-05
1.59516e-05
1.57968e-05
1.56023e-05
1.53603e-05
1.50618e-05
1.4696e-05
1.42506e-05
1.37121e-05
1.30657e-05
1.22958e-05
1.13869e-05
1.03242e-05
9.09512e-06
7.69133e-06
6.11028e-06
4.35784e-06
2.45072e-06
4.18664e-07
-1.69402e-06
-3.82847e-06
-5.91311e-06
-7.86798e-06
-9.61122e-06
-1.10675e-05
-1.21773e-05
-1.29045e-05
-1.32414e-05
-1.3209e-05
-1.28526e-05
-1.2234e-05
-1.14229e-05
-1.04881e-05
-9.49135e-06
-8.48377e-06
-7.50459e-06
-6.58146e-06
-5.73193e-06
-4.96521e-06
-4.28414e-06
-3.68701e-06
-3.16905e-06
-2.72373e-06
-2.34358e-06
-2.02094e-06
-1.74833e-06
-1.51876e-06
-1.32589e-06
-1.16413e-06
-1.0286e-06
-9.1508e-07
-8.19952e-07
-7.40069e-07
-6.72709e-07
-6.15518e-07
-5.66478e-07
-5.23867e-07
-4.86223e-07
-4.52303e-07
-4.21052e-07
-3.91577e-07
-3.63143e-07
-3.35176e-07
-3.07277e-07
-2.79223e-07
-2.50968e-07
-2.22619e-07
-1.94413e-07
-1.66664e-07
-1.39728e-07
-1.13946e-07
-8.96283e-08
-6.70221e-08
-4.63393e-08
-2.76277e-08
-1.23613e-08
1.63026e-05
1.6287e-05
1.62466e-05
1.61818e-05
1.60921e-05
1.59742e-05
1.58234e-05
1.56337e-05
1.53975e-05
1.51058e-05
1.47476e-05
1.43108e-05
1.37816e-05
1.31449e-05
1.23846e-05
1.14846e-05
1.04291e-05
9.20464e-06
7.80128e-06
6.21505e-06
4.45037e-06
2.52274e-06
4.61254e-07
-1.68957e-06
-3.86944e-06
-6.00396e-06
-8.009e-06
-9.79765e-06
-1.12894e-05
-1.24204e-05
-1.31521e-05
-1.34766e-05
-1.34174e-05
-1.3024e-05
-1.23635e-05
-1.15102e-05
-1.05368e-05
-9.50733e-06
-8.47401e-06
-7.47605e-06
-6.54048e-06
-5.68384e-06
-4.91421e-06
-4.23337e-06
-3.63861e-06
-3.12438e-06
-2.68352e-06
-2.30812e-06
-1.99019e-06
-1.72204e-06
-1.49653e-06
-1.30728e-06
-1.14866e-06
-1.01583e-06
-9.04602e-07
-8.11395e-07
-7.33097e-07
-6.67021e-07
-6.10842e-07
-5.62579e-07
-5.20551e-07
-4.83343e-07
-4.49754e-07
-4.18768e-07
-3.89518e-07
-3.6129e-07
-3.33519e-07
-3.05815e-07
-2.77958e-07
-2.49904e-07
-2.21763e-07
-1.93769e-07
-1.66232e-07
-1.39501e-07
-1.13911e-07
-8.97599e-08
-6.72811e-08
-4.66664e-08
-2.79331e-08
-1.24864e-08
1.632e-05
1.63049e-05
1.6266e-05
1.62036e-05
1.61171e-05
1.60034e-05
1.58578e-05
1.56745e-05
1.54459e-05
1.51629e-05
1.48148e-05
1.43892e-05
1.3872e-05
1.3248e-05
1.25004e-05
1.16121e-05
1.05664e-05
9.34817e-06
7.94571e-06
6.35311e-06
4.5728e-06
2.61862e-06
5.18735e-07
-1.68214e-06
-3.92189e-06
-6.12243e-06
-8.19411e-06
-1.00432e-05
-1.15824e-05
-1.27416e-05
-1.3479e-05
-1.37868e-05
-1.36916e-05
-1.32488e-05
-1.25324e-05
-1.16233e-05
-1.0599e-05
-9.52671e-06
-8.45984e-06
-7.43757e-06
-6.48601e-06
-5.62034e-06
-4.84717e-06
-4.16682e-06
-3.57531e-06
-3.06608e-06
-2.63113e-06
-2.26199e-06
-1.95025e-06
-1.68793e-06
-1.46775e-06
-1.28321e-06
-1.1287e-06
-9.9939e-07
-8.91148e-07
-8.0044e-07
-7.24202e-07
-6.59785e-07
-6.04907e-07
-5.57635e-07
-5.16345e-07
-4.79682e-07
-4.46504e-07
-4.1584e-07
-3.8686e-07
-3.58875e-07
-3.31335e-07
-3.03858e-07
-2.76232e-07
-2.4842e-07
-2.20532e-07
-1.92801e-07
-1.65534e-07
-1.39069e-07
-1.13729e-07
-8.97979e-08
-6.74929e-08
-4.69815e-08
-2.82457e-08
-1.26234e-08
1.63408e-05
1.63265e-05
1.62894e-05
1.62299e-05
1.61472e-05
1.60386e-05
1.58993e-05
1.57236e-05
1.55042e-05
1.52318e-05
1.48959e-05
1.44839e-05
1.39816e-05
1.3373e-05
1.2641e-05
1.17673e-05
1.07338e-05
9.5236e-06
8.12279e-06
6.52299e-06
4.72419e-06
2.73808e-06
5.91546e-07
-1.67057e-06
-3.98403e-06
-6.26625e-06
-8.42072e-06
-1.03453e-05
-1.19435e-05
-1.3138e-05
-1.38825e-05
-1.4169e-05
-1.40285e-05
-1.35238e-05
-1.27379e-05
-1.17597e-05
-1.06728e-05
-9.54813e-06
-8.44053e-06
-7.38897e-06
-6.41833e-06
-5.5421e-06
-4.76498e-06
-4.08552e-06
-3.49821e-06
-2.9952e-06
-2.56756e-06
-2.20611e-06
-1.90194e-06
-1.64674e-06
-1.43302e-06
-1.25421e-06
-1.10468e-06
-9.7962e-07
-8.74985e-07
-7.87294e-07
-7.13538e-07
-6.51115e-07
-5.97796e-07
-5.51707e-07
-5.11296e-07
-4.75282e-07
-4.42591e-07
-4.12312e-07
-3.83656e-07
-3.5596e-07
-3.28692e-07
-3.01484e-07
-2.74131e-07
-2.46603e-07
-2.19013e-07
-1.91596e-07
-1.6465e-07
-1.38502e-07
-1.1346e-07
-8.97907e-08
-6.76925e-08
-4.73077e-08
-2.85809e-08
-1.27834e-08
1.63647e-05
1.63511e-05
1.63161e-05
1.62599e-05
1.61818e-05
1.60789e-05
1.59469e-05
1.57801e-05
1.55711e-05
1.53111e-05
1.49893e-05
1.4593e-05
1.41079e-05
1.35174e-05
1.28037e-05
1.19473e-05
1.09284e-05
9.72813e-06
8.32994e-06
6.72257e-06
4.90304e-06
2.88042e-06
6.79899e-07
-1.6537e-06
-4.05378e-06
-6.43256e-06
-8.68543e-06
-1.06999e-05
-1.23688e-05
-1.36055e-05
-1.43582e-05
-1.46188e-05
-1.44236e-05
-1.38449e-05
-1.2976e-05
-1.1916e-05
-1.07556e-05
-9.56993e-06
-8.41525e-06
-7.33015e-06
-6.33795e-06
-5.45002e-06
-4.66883e-06
-3.99082e-06
-3.40869e-06
-2.91313e-06
-2.49412e-06
-2.14167e-06
-1.84631e-06
-1.59937e-06
-1.39313e-06
-1.22093e-06
-1.07711e-06
-9.56949e-07
-8.56455e-07
-7.72229e-07
-7.0132e-07
-6.41183e-07
-5.89646e-07
-5.4491e-07
-5.05502e-07
-4.70232e-07
-4.38106e-07
-4.08276e-07
-3.79999e-07
-3.52641e-07
-3.25691e-07
-2.98791e-07
-2.71747e-07
-2.44539e-07
-2.17285e-07
-1.90218e-07
-1.63628e-07
-1.37831e-07
-1.13116e-07
-8.9732e-08
-6.78559e-08
-4.76069e-08
-2.88948e-08
-1.29313e-08
1.63909e-05
1.63783e-05
1.63456e-05
1.62929e-05
1.62198e-05
1.61234e-05
1.59994e-05
1.58424e-05
1.56451e-05
1.53988e-05
1.50927e-05
1.47141e-05
1.42482e-05
1.36782e-05
1.29852e-05
1.21485e-05
1.11466e-05
9.95819e-06
8.56386e-06
6.94903e-06
5.10724e-06
3.04446e-06
7.83743e-07
-1.63035e-06
-4.12878e-06
-6.61793e-06
-8.98391e-06
-1.11023e-05
-1.2853e-05
-1.41385e-05
-1.49003e-05
-1.51304e-05
-1.48714e-05
-1.42066e-05
-1.32422e-05
-1.20886e-05
-1.08448e-05
-9.59046e-06
-8.38335e-06
-7.26129e-06
-6.24569e-06
-5.34538e-06
-4.56028e-06
-3.88442e-06
-3.30848e-06
-2.82153e-06
-2.41234e-06
-2.07006e-06
-1.7846e-06
-1.5469e-06
-1.349e-06
-1.18413e-06
-1.04666e-06
-9.31918e-07
-8.36013e-07
-7.55625e-07
-6.87872e-07
-6.30267e-07
-5.80704e-07
-5.37464e-07
-4.99172e-07
-4.64732e-07
-4.33242e-07
-4.03922e-07
-3.76078e-07
-3.49105e-07
-3.22509e-07
-2.95948e-07
-2.69239e-07
-2.42372e-07
-2.15472e-07
-1.88772e-07
-1.62555e-07
-1.37121e-07
-1.12741e-07
-8.96445e-08
-6.79891e-08
-4.78724e-08
-2.91762e-08
-1.30635e-08
1.64189e-05
1.64072e-05
1.63769e-05
1.63282e-05
1.62604e-05
1.61709e-05
1.60556e-05
1.59091e-05
1.57245e-05
1.54929e-05
1.52038e-05
1.48443e-05
1.43994e-05
1.38518e-05
1.31816e-05
1.23669e-05
1.13841e-05
1.02095e-05
8.82043e-06
7.19869e-06
5.33388e-06
3.22834e-06
9.02539e-07
-1.59957e-06
-4.20651e-06
-6.81836e-06
-9.31091e-06
-1.15461e-05
-1.33892e-05
-1.47297e-05
-1.55015e-05
-1.56965e-05
-1.53648e-05
-1.46025e-05
-1.35309e-05
-1.22731e-05
-1.09374e-05
-9.60811e-06
-8.34435e-06
-7.18287e-06
-6.14271e-06
-5.22985e-06
-4.44127e-06
-3.76838e-06
-3.19961e-06
-2.72234e-06
-2.32402e-06
-1.99289e-06
-1.71823e-06
-1.49056e-06
-1.30167e-06
-1.1447e-06
-1.01405e-06
-9.05123e-07
-8.14142e-07
-7.37876e-07
-6.73512e-07
-6.18623e-07
-5.71175e-07
-5.29537e-07
-4.92439e-07
-4.58896e-07
-4.28096e-07
-3.99335e-07
-3.71965e-07
-3.45411e-07
-3.19195e-07
-2.9299e-07
-2.66626e-07
-2.40105e-07
-2.13562e-07
-1.87231e-07
-1.61388e-07
-1.36317e-07
-1.1227e-07
-8.94563e-08
-6.80154e-08
-4.80276e-08
-2.93553e-08
-1.31313e-08
1.64479e-05
1.64372e-05
1.64095e-05
1.63648e-05
1.63026e-05
1.62203e-05
1.6114e-05
1.59786e-05
1.58072e-05
1.55912e-05
1.53199e-05
1.49806e-05
1.45581e-05
1.40343e-05
1.33885e-05
1.25976e-05
1.16359e-05
1.04768e-05
9.09463e-06
7.46696e-06
5.57915e-06
3.42941e-06
1.03512e-06
-1.56073e-06
-4.28437e-06
-7.02931e-06
-9.66009e-06
-1.20236e-05
-1.39686e-05
-1.53696e-05
-1.61522e-05
-1.63077e-05
-1.58949e-05
-1.5025e-05
-1.38358e-05
-1.24649e-05
-1.10304e-05
-9.62147e-06
-8.29819e-06
-7.09585e-06
-6.03073e-06
-5.10558e-06
-4.31421e-06
-3.64516e-06
-3.08451e-06
-2.61782e-06
-2.23122e-06
-1.91201e-06
-1.64883e-06
-1.43175e-06
-1.25234e-06
-1.10366e-06
-9.80136e-07
-8.77295e-07
-7.91463e-07
-7.1951e-07
-6.5869e-07
-6.06639e-07
-5.61394e-07
-5.21423e-07
-4.8557e-07
-4.52964e-07
-4.22894e-07
-3.94728e-07
-3.67862e-07
-3.41747e-07
-3.15922e-07
-2.90073e-07
-2.64047e-07
-2.37861e-07
-2.11661e-07
-1.85686e-07
-1.60204e-07
-1.35484e-07
-1.11759e-07
-8.92171e-08
-6.79809e-08
-4.81171e-08
-2.94765e-08
-1.31742e-08
1.64772e-05
1.64675e-05
1.64424e-05
1.64019e-05
1.63453e-05
1.62703e-05
1.61733e-05
1.60491e-05
1.58912e-05
1.56911e-05
1.54383e-05
1.51198e-05
1.47203e-05
1.42213e-05
1.36012e-05
1.28353e-05
1.18961e-05
1.07543e-05
9.38055e-06
7.74828e-06
5.83819e-06
3.64399e-06
1.1795e-06
-1.51374e-06
-4.3599e-06
-7.2458e-06
-1.00241e-05
-1.25255e-05
-1.45802e-05
-1.60467e-05
-1.68403e-05
-1.69524e-05
-1.64515e-05
-1.54652e-05
-1.415e-05
-1.26592e-05
-1.11211e-05
-9.62956e-06
-8.24533e-06
-7.00175e-06
-5.91197e-06
-4.97524e-06
-4.18193e-06
-3.51759e-06
-2.96587e-06
-2.51047e-06
-2.1362e-06
-1.8294e-06
-1.57809e-06
-1.37192e-06
-1.20222e-06
-1.062e-06
-9.45739e-07
-8.49087e-07
-7.68498e-07
-7.00935e-07
-6.43722e-07
-5.94549e-07
-5.51531e-07
-5.1324e-07
-4.7864e-07
-4.46984e-07
-4.1766e-07
-3.90108e-07
-3.63763e-07
-3.38098e-07
-3.12664e-07
-2.87161e-07
-2.61455e-07
-2.35583e-07
-2.09704e-07
-1.84064e-07
-1.58926e-07
-1.34544e-07
-1.11131e-07
-8.88547e-08
-6.78203e-08
-4.8084e-08
-2.94921e-08
-1.31551e-08
1.6506e-05
1.64974e-05
1.64748e-05
1.64384e-05
1.63874e-05
1.63198e-05
1.62319e-05
1.61189e-05
1.59745e-05
1.57903e-05
1.55558e-05
1.52583e-05
1.48821e-05
1.44082e-05
1.38142e-05
1.30742e-05
1.21586e-05
1.10353e-05
9.67137e-06
8.03602e-06
6.10507e-06
3.86734e-06
1.33269e-06
-1.45923e-06
-4.43092e-06
-7.4626e-06
-1.03947e-05
-1.30407e-05
-1.52111e-05
-1.67465e-05
-1.75515e-05
-1.7617e-05
-1.70222e-05
-1.59131e-05
-1.44662e-05
-1.28512e-05
-1.1207e-05
-9.63193e-06
-8.18685e-06
-6.90274e-06
-5.78931e-06
-4.84203e-06
-4.04774e-06
-3.3889e-06
-2.84672e-06
-2.40305e-06
-2.0414e-06
-1.74723e-06
-1.5079e-06
-1.31268e-06
-1.1527e-06
-1.0209e-06
-9.11851e-07
-8.21346e-07
-7.45969e-07
-6.82775e-07
-6.29142e-07
-5.82817e-07
-5.4199e-07
-5.05341e-07
-4.71966e-07
-4.41242e-07
-4.12661e-07
-3.85724e-07
-3.59902e-07
-3.34682e-07
-3.09625e-07
-2.84443e-07
-2.59023e-07
-2.33425e-07
-2.07828e-07
-1.82486e-07
-1.57662e-07
-1.33595e-07
-1.10476e-07
-8.84535e-08
-6.7615e-08
-4.80072e-08
-2.94758e-08
-1.31308e-08
1.65337e-05
1.6526e-05
1.65059e-05
1.64734e-05
1.64279e-05
1.63673e-05
1.62883e-05
1.61862e-05
1.60549e-05
1.58861e-05
1.56697e-05
1.53927e-05
1.50393e-05
1.45902e-05
1.40223e-05
1.33081e-05
1.24164e-05
1.13123e-05
9.95948e-06
8.32266e-06
6.37277e-06
4.09359e-06
1.49066e-06
-1.39867e-06
-4.49568e-06
-7.67429e-06
-1.07627e-05
-1.35566e-05
-1.58459e-05
-1.74524e-05
-1.82687e-05
-1.82854e-05
-1.75933e-05
-1.63578e-05
-1.47764e-05
-1.30362e-05
-1.12861e-05
-9.62879e-06
-8.12453e-06
-6.80164e-06
-5.66613e-06
-4.7096e-06
-3.91527e-06
-3.26255e-06
-2.73023e-06
-2.29839e-06
-1.94931e-06
-1.66761e-06
-1.44006e-06
-1.25554e-06
-1.10498e-06
-9.81329e-07
-8.79243e-07
-7.94674e-07
-7.24337e-07
-6.65369e-07
-6.15196e-07
-5.71607e-07
-5.32869e-07
-4.97776e-07
-4.65557e-07
-4.35719e-07
-4.07852e-07
-3.81518e-07
-3.56213e-07
-3.31427e-07
-3.06728e-07
-2.8184e-07
-2.5667e-07
-2.31304e-07
-2.05947e-07
-1.80868e-07
-1.56326e-07
-1.32551e-07
-1.09713e-07
-8.79377e-08
-6.72965e-08
-4.78267e-08
-2.93757e-08
-1.30583e-08
1.65594e-05
1.65526e-05
1.65349e-05
1.65061e-05
1.64657e-05
1.64117e-05
1.63411e-05
1.62493e-05
1.61303e-05
1.59762e-05
1.57768e-05
1.55193e-05
1.51877e-05
1.47624e-05
1.42196e-05
1.35306e-05
1.26624e-05
1.15777e-05
1.02366e-05
8.59986e-06
6.63336e-06
4.31583e-06
1.64832e-06
-1.33448e-06
-4.55307e-06
-7.87558e-06
-1.11183e-05
-1.40592e-05
-1.64674e-05
-1.81449e-05
-1.89723e-05
-1.89396e-05
-1.81494e-05
-1.67874e-05
-1.50729e-05
-1.32098e-05
-1.13572e-05
-9.62106e-06
-8.06087e-06
-6.70193e-06
-5.54642e-06
-4.58205e-06
-3.78853e-06
-3.14229e-06
-2.61981e-06
-2.19954e-06
-1.86262e-06
-1.59288e-06
-1.37656e-06
-1.2022e-06
-1.06054e-06
-9.44544e-07
-8.4899e-07
-7.69992e-07
-7.04395e-07
-6.49407e-07
-6.02483e-07
-5.61448e-07
-5.24638e-07
-4.90963e-07
-4.59791e-07
-4.30757e-07
-4.03547e-07
-3.77776e-07
-3.52955e-07
-3.28574e-07
-3.04197e-07
-2.79558e-07
-2.54586e-07
-2.29398e-07
-2.04226e-07
-1.79356e-07
-1.55052e-07
-1.31533e-07
-1.0895e-07
-8.74073e-08
-6.69577e-08
-4.7629e-08
-2.927e-08
-1.29983e-08
1.65825e-05
1.65765e-05
1.65609e-05
1.65355e-05
1.64998e-05
1.64519e-05
1.63888e-05
1.63064e-05
1.61987e-05
1.6058e-05
1.58743e-05
1.56347e-05
1.53233e-05
1.49201e-05
1.44006e-05
1.37353e-05
1.28894e-05
1.18234e-05
1.04943e-05
8.85876e-06
6.87817e-06
4.52628e-06
1.79962e-06
-1.26996e-06
-4.60265e-06
-8.06144e-06
-1.14515e-05
-1.45338e-05
-1.70567e-05
-1.88031e-05
-1.96409e-05
-1.95597e-05
-1.86741e-05
-1.719e-05
-1.53478e-05
-1.33683e-05
-1.14196e-05
-9.61037e-06
-7.999e-06
-6.60756e-06
-5.43445e-06
-4.46368e-06
-3.67158e-06
-3.03181e-06
-2.51875e-06
-2.10935e-06
-1.78374e-06
-1.52507e-06
-1.31909e-06
-1.15401e-06
-1.02045e-06
-9.11384e-07
-8.21733e-07
-7.47777e-07
-6.86483e-07
-6.35113e-07
-5.91137e-07
-5.52402e-07
-5.17307e-07
-4.84874e-07
-4.54606e-07
-4.26269e-07
-3.99637e-07
-3.74371e-07
-3.49991e-07
-3.25976e-07
-3.01884e-07
-2.77453e-07
-2.52634e-07
-2.27576e-07
-2.02539e-07
-1.77832e-07
-1.53724e-07
-1.30429e-07
-1.08079e-07
-8.67577e-08
-6.64987e-08
-4.73195e-08
-2.90717e-08
-1.28786e-08
1.66024e-05
1.65972e-05
1.65834e-05
1.6561e-05
1.65293e-05
1.64867e-05
1.64303e-05
1.63561e-05
1.62583e-05
1.61294e-05
1.59594e-05
1.57357e-05
1.54421e-05
1.50586e-05
1.456e-05
1.39159e-05
1.30903e-05
1.20415e-05
1.07238e-05
9.09034e-06
7.09823e-06
4.71664e-06
1.93786e-06
-1.20918e-06
-4.64471e-06
-8.22736e-06
-1.17523e-05
-1.49648e-05
-1.75941e-05
-1.94044e-05
-2.02518e-05
-2.01253e-05
-1.91507e-05
-1.75534e-05
-1.5594e-05
-1.35085e-05
-1.14733e-05
-9.599e-06
-7.94253e-06
-6.52285e-06
-5.33481e-06
-4.35898e-06
-3.56864e-06
-2.93496e-06
-2.43046e-06
-2.0308e-06
-1.71526e-06
-1.4664e-06
-1.26954e-06
-1.11261e-06
-9.86117e-07
-8.83061e-07
-7.98522e-07
-7.28938e-07
-6.71387e-07
-6.23171e-07
-5.81758e-07
-5.45002e-07
-5.11358e-07
-4.7995e-07
-4.50413e-07
-4.22632e-07
-3.96467e-07
-3.71616e-07
-3.47602e-07
-3.23891e-07
-3.00026e-07
-2.7575e-07
-2.51031e-07
-2.26047e-07
-2.01092e-07
-1.76495e-07
-1.52537e-07
-1.29425e-07
-1.07278e-07
-8.61571e-08
-6.6079e-08
-4.70491e-08
-2.89191e-08
-1.28101e-08
1.66186e-05
1.6614e-05
1.66017e-05
1.65818e-05
1.65534e-05
1.65152e-05
1.64644e-05
1.6397e-05
1.63075e-05
1.61884e-05
1.60299e-05
1.58194e-05
1.55409e-05
1.51738e-05
1.46928e-05
1.40669e-05
1.32586e-05
1.22246e-05
1.09171e-05
9.28592e-06
7.28471e-06
4.8786e-06
2.05605e-06
-1.15669e-06
-4.68018e-06
-8.36953e-06
-1.20114e-05
-1.53375e-05
-1.806e-05
-1.99264e-05
-2.07822e-05
-2.06155e-05
-1.95627e-05
-1.78663e-05
-1.5805e-05
-1.36281e-05
-1.15189e-05
-9.58956e-06
-7.89524e-06
-6.4521e-06
-5.25186e-06
-4.2721e-06
-3.48349e-06
-2.85508e-06
-2.35782e-06
-1.96634e-06
-1.65921e-06
-1.41851e-06
-1.22922e-06
-1.07902e-06
-9.58319e-07
-8.60171e-07
-7.79791e-07
-7.1377e-07
-6.59281e-07
-6.13649e-07
-5.74329e-07
-5.39171e-07
-5.06673e-07
-4.76046e-07
-4.47045e-07
-4.1966e-07
-3.9383e-07
-3.69283e-07
-3.45544e-07
-3.22059e-07
-2.98359e-07
-2.74183e-07
-2.49517e-07
-2.24566e-07
-1.99651e-07
-1.75123e-07
-1.51276e-07
-1.28314e-07
-1.06344e-07
-8.54065e-08
-6.55017e-08
-4.66237e-08
-2.86264e-08
-1.26359e-08
1.66306e-05
1.66264e-05
1.66154e-05
1.65973e-05
1.65715e-05
1.65367e-05
1.64901e-05
1.64279e-05
1.63448e-05
1.62332e-05
1.60837e-05
1.58834e-05
1.56164e-05
1.52622e-05
1.4795e-05
1.41831e-05
1.33884e-05
1.23662e-05
1.10667e-05
9.43764e-06
7.42955e-06
5.0044e-06
2.14755e-06
-1.11704e-06
-4.71036e-06
-8.48489e-06
-1.22206e-05
-1.56382e-05
-1.8436e-05
-2.0348e-05
-2.12105e-05
-2.10111e-05
-1.98948e-05
-1.81183e-05
-1.59751e-05
-1.37254e-05
-1.15576e-05
-9.58483e-06
-7.86087e-06
-6.39944e-06
-5.18975e-06
-4.20698e-06
-3.41972e-06
-2.79536e-06
-2.30365e-06
-1.9184e-06
-1.61768e-06
-1.3832e-06
-1.19967e-06
-1.05456e-06
-9.38216e-07
-8.43733e-07
-7.6645e-07
-7.03083e-07
-6.50882e-07
-6.07186e-07
-5.69426e-07
-5.3544e-07
-5.03752e-07
-4.73646e-07
-4.44971e-07
-4.1781e-07
-3.92163e-07
-3.67789e-07
-3.44209e-07
-3.20855e-07
-2.97241e-07
-2.73106e-07
-2.48445e-07
-2.23485e-07
-1.98572e-07
-1.74078e-07
-1.50305e-07
-1.27458e-07
-1.05632e-07
-8.48535e-08
-6.51044e-08
-4.63682e-08
-2.84956e-08
-1.25997e-08
1.66381e-05
1.66342e-05
1.6624e-05
1.66071e-05
1.65831e-05
1.65504e-05
1.65067e-05
1.64481e-05
1.63692e-05
1.62627e-05
1.61191e-05
1.59258e-05
1.56666e-05
1.5321e-05
1.4863e-05
1.42607e-05
1.34752e-05
1.24609e-05
1.11668e-05
9.53902e-06
7.526e-06
5.08749e-06
2.20661e-06
-1.09432e-06
-4.73666e-06
-8.57113e-06
-1.2373e-05
-1.58555e-05
-1.87067e-05
-2.0651e-05
-2.15183e-05
-2.12957e-05
-2.01341e-05
-1.83009e-05
-1.61e-05
-1.37991e-05
-1.15903e-05
-9.58724e-06
-7.84254e-06
-6.36823e-06
-5.15176e-06
-4.16663e-06
-3.38e-06
-2.7581e-06
-2.26987e-06
-1.88858e-06
-1.59196e-06
-1.36148e-06
-1.18163e-06
-1.03978e-06
-9.26186e-07
-8.33995e-07
-7.58631e-07
-6.96906e-07
-6.46122e-07
-6.03621e-07
-5.66811e-07
-5.33513e-07
-5.02261e-07
-4.72389e-07
-4.43812e-07
-4.16682e-07
-3.91048e-07
-3.6669e-07
-3.43131e-07
-3.19791e-07
-2.96174e-07
-2.72014e-07
-2.47314e-07
-2.22313e-07
-1.97376e-07
-1.7289e-07
-1.49166e-07
-1.26409e-07
-1.04704e-07
-8.40637e-08
-6.4457e-08
-4.58578e-08
-2.81198e-08
-1.23624e-08
1.66408e-05
1.66371e-05
1.66272e-05
1.66109e-05
1.65877e-05
1.65562e-05
1.65138e-05
1.64568e-05
1.63799e-05
1.62759e-05
1.61351e-05
1.59451e-05
1.56897e-05
1.53482e-05
1.48947e-05
1.42969e-05
1.35156e-05
1.2505e-05
1.12132e-05
9.58545e-06
7.56926e-06
5.12314e-06
2.22906e-06
-1.09152e-06
-4.76018e-06
-8.6267e-06
-1.24639e-05
-1.59809e-05
-1.88606e-05
-2.08221e-05
-2.16919e-05
-2.14568e-05
-2.02712e-05
-1.84079e-05
-1.61765e-05
-1.38485e-05
-1.16179e-05
-9.59864e-06
-7.84259e-06
-6.36098e-06
-5.14034e-06
-4.15334e-06
-3.36639e-06
-2.74514e-06
-2.25811e-06
-1.87831e-06
-1.58329e-06
-1.35441e-06
-1.17607e-06
-1.03553e-06
-9.23021e-07
-8.31703e-07
-7.57051e-07
-6.95926e-07
-6.45659e-07
-6.03587e-07
-5.67099e-07
-5.33995e-07
-5.02809e-07
-4.72893e-07
-4.442e-07
-4.16919e-07
-3.9113e-07
-3.66633e-07
-3.42953e-07
-3.19508e-07
-2.95795e-07
-2.71545e-07
-2.46764e-07
-2.21697e-07
-1.96717e-07
-1.72221e-07
-1.48523e-07
-1.25828e-07
-1.04214e-07
-8.36826e-08
-6.4191e-08
-4.57044e-08
-2.80718e-08
-1.23875e-08
1.66387e-05
1.66349e-05
1.6625e-05
1.66086e-05
1.65853e-05
1.65536e-05
1.6511e-05
1.64538e-05
1.63767e-05
1.62724e-05
1.61312e-05
1.59408e-05
1.56849e-05
1.53429e-05
1.48887e-05
1.42902e-05
1.35081e-05
1.24966e-05
1.12036e-05
9.57457e-06
7.55684e-06
5.10891e-06
2.21276e-06
-1.11017e-06
-4.7814e-06
-8.6506e-06
-1.24905e-05
-1.60097e-05
-1.88912e-05
-2.08537e-05
-2.17235e-05
-2.14876e-05
-2.03007e-05
-1.84358e-05
-1.62027e-05
-1.38731e-05
-1.16409e-05
-9.61984e-06
-7.86207e-06
-6.37879e-06
-5.15656e-06
-4.16807e-06
-3.37972e-06
-2.75715e-06
-2.2689e-06
-1.88797e-06
-1.59194e-06
-1.36216e-06
-1.18301e-06
-1.04174e-06
-9.2857e-07
-8.36637e-07
-7.61422e-07
-6.9979e-07
-6.4907e-07
-6.06595e-07
-5.69739e-07
-5.36284e-07
-5.0475e-07
-4.7448e-07
-4.45426e-07
-4.17786e-07
-3.91652e-07
-3.66835e-07
-3.4287e-07
-3.1918e-07
-2.95265e-07
-2.70854e-07
-2.4595e-07
-2.20796e-07
-1.95764e-07
-1.7125e-07
-1.47569e-07
-1.24922e-07
-1.03381e-07
-8.29398e-08
-6.3547e-08
-4.51635e-08
-2.76438e-08
-1.20925e-08
1.66317e-05
1.66278e-05
1.66173e-05
1.66002e-05
1.65759e-05
1.65428e-05
1.64985e-05
1.64392e-05
1.63595e-05
1.62521e-05
1.61074e-05
1.59128e-05
1.56522e-05
1.5305e-05
1.48452e-05
1.42407e-05
1.34527e-05
1.24356e-05
1.11382e-05
9.50645e-06
7.48884e-06
5.04495e-06
2.15789e-06
-1.15001e-06
-4.79998e-06
-8.6424e-06
-1.24521e-05
-1.59414e-05
-1.87978e-05
-2.0745e-05
-2.16124e-05
-2.13875e-05
-2.02221e-05
-1.83841e-05
-1.61783e-05
-1.38725e-05
-1.16587e-05
-9.65055e-06
-7.90075e-06
-6.42149e-06
-5.2003e-06
-4.21073e-06
-3.41993e-06
-2.79414e-06
-2.30229e-06
-1.91768e-06
-1.61808e-06
-1.38494e-06
-1.20273e-06
-1.05875e-06
-9.43219e-07
-8.49239e-07
-7.72242e-07
-7.09047e-07
-6.56958e-07
-6.13294e-07
-5.75423e-07
-5.41114e-07
-5.08857e-07
-4.77958e-07
-4.48335e-07
-4.20159e-07
-3.93515e-07
-3.68219e-07
-3.43824e-07
-3.19767e-07
-2.95556e-07
-2.70922e-07
-2.45862e-07
-2.20607e-07
-1.95518e-07
-1.70982e-07
-1.47308e-07
-1.2469e-07
-1.03194e-07
-8.28104e-08
-6.34816e-08
-4.51647e-08
-2.77086e-08
-1.21844e-08
1.662e-05
1.66157e-05
1.66044e-05
1.65859e-05
1.65595e-05
1.65239e-05
1.64764e-05
1.64132e-05
1.63287e-05
1.62156e-05
1.60642e-05
1.58619e-05
1.55926e-05
1.52356e-05
1.47653e-05
1.41499e-05
1.33511e-05
1.23242e-05
1.10192e-05
9.38362e-06
7.36794e-06
4.93395e-06
2.06696e-06
-1.20904e-06
-4.81479e-06
-8.60224e-06
-1.23505e-05
-1.57793e-05
-1.85855e-05
-2.05021e-05
-2.13649e-05
-2.1162e-05
-2.00394e-05
-1.82554e-05
-1.61042e-05
-1.38464e-05
-1.16704e-05
-9.68929e-06
-7.95697e-06
-6.4874e-06
-5.26995e-06
-4.27986e-06
-3.48573e-06
-2.85494e-06
-2.35725e-06
-1.96652e-06
-1.66086e-06
-1.42197e-06
-1.2345e-06
-1.08586e-06
-9.66273e-07
-8.68808e-07
-7.88793e-07
-7.22959e-07
-6.68554e-07
-6.22885e-07
-5.83319e-07
-5.47613e-07
-5.14217e-07
-4.82375e-07
-4.51932e-07
-4.23007e-07
-3.95658e-07
-3.69703e-07
-3.44712e-07
-3.20149e-07
-2.95538e-07
-2.70614e-07
-2.45361e-07
-2.19992e-07
-1.94848e-07
-1.70295e-07
-1.46628e-07
-1.24032e-07
-1.02571e-07
-8.22279e-08
-6.29467e-08
-4.46846e-08
-2.72985e-08
-1.18725e-08
1.66038e-05
1.65991e-05
1.65865e-05
1.65659e-05
1.65367e-05
1.64975e-05
1.64454e-05
1.63764e-05
1.62851e-05
1.61638e-05
1.60028e-05
1.57895e-05
1.55076e-05
1.51368e-05
1.46516e-05
1.40207e-05
1.32067e-05
1.21662e-05
1.0851e-05
9.21084e-06
7.19916e-06
4.78092e-06
1.94449e-06
-1.28378e-06
-4.82412e-06
-8.53094e-06
-1.21898e-05
-1.55308e-05
-1.82645e-05
-2.01371e-05
-2.09935e-05
-2.08222e-05
-1.97613e-05
-1.80548e-05
-1.59828e-05
-1.37949e-05
-1.16745e-05
-9.73369e-06
-8.02796e-06
-6.57367e-06
-5.36279e-06
-4.37299e-06
-3.57495e-06
-2.93772e-06
-2.43226e-06
-2.03325e-06
-1.71932e-06
-1.47255e-06
-1.27785e-06
-1.12278e-06
-9.97631e-07
-8.95388e-07
-8.11254e-07
-7.41829e-07
-6.84286e-07
-6.35909e-07
-5.9407e-07
-5.56511e-07
-5.21632e-07
-4.88589e-07
-4.57129e-07
-4.2729e-07
-3.99087e-07
-3.72335e-07
-3.46626e-07
-3.21455e-07
-2.9637e-07
-2.71109e-07
-2.45643e-07
-2.20157e-07
-1.94961e-07
-1.70394e-07
-1.46732e-07
-1.24147e-07
-1.02697e-07
-8.23649e-08
-6.30962e-08
-4.48487e-08
-2.74743e-08
-1.20185e-08
1.65836e-05
1.65782e-05
1.65639e-05
1.65407e-05
1.6508e-05
1.64641e-05
1.64061e-05
1.63299e-05
1.62297e-05
1.6098e-05
1.59249e-05
1.56975e-05
1.53997e-05
1.50113e-05
1.45073e-05
1.3857e-05
1.30241e-05
1.1967e-05
1.06395e-05
8.99472e-06
6.98943e-06
4.59264e-06
1.79655e-06
-1.36976e-06
-4.82608e-06
-8.43016e-06
-1.19758e-05
-1.52065e-05
-1.78495e-05
-1.96674e-05
-2.05156e-05
-2.03838e-05
-1.93996e-05
-1.77902e-05
-1.58176e-05
-1.37185e-05
-1.16693e-05
-9.78078e-06
-8.11007e-06
-6.67648e-06
-5.47511e-06
-4.48668e-06
-3.68451e-06
-3.03975e-06
-2.52495e-06
-2.11581e-06
-1.7917e-06
-1.53515e-06
-1.33144e-06
-1.16834e-06
-1.03621e-06
-9.2796e-07
-8.38645e-07
-7.64709e-07
-7.03227e-07
-6.51453e-07
-6.06759e-07
-5.66874e-07
-5.30134e-07
-4.9559e-07
-4.62872e-07
-4.31917e-07
-4.02682e-07
-3.74973e-07
-3.48408e-07
-3.22517e-07
-2.96873e-07
-2.71219e-07
-2.45509e-07
-2.19894e-07
-1.94645e-07
-1.70067e-07
-1.4641e-07
-1.23831e-07
-1.02381e-07
-8.20462e-08
-6.27746e-08
-4.45292e-08
-2.71702e-08
-1.17539e-08
1.65597e-05
1.65535e-05
1.65373e-05
1.6511e-05
1.6474e-05
1.64245e-05
1.63595e-05
1.62747e-05
1.61641e-05
1.60201e-05
1.58324e-05
1.55884e-05
1.52719e-05
1.48628e-05
1.43367e-05
1.36639e-05
1.28093e-05
1.17332e-05
1.03924e-05
8.74329e-06
6.74702e-06
4.37711e-06
1.63008e-06
-1.46205e-06
-4.81892e-06
-8.30246e-06
-1.17163e-05
-1.48194e-05
-1.7358e-05
-1.91132e-05
-1.99522e-05
-1.98654e-05
-1.8969e-05
-1.74712e-05
-1.56138e-05
-1.36184e-05
-1.16533e-05
-9.8274e-06
-8.19929e-06
-6.79144e-06
-5.60258e-06
-4.61689e-06
-3.81076e-06
-3.15785e-06
-2.63256e-06
-2.21191e-06
-1.87608e-06
-1.60825e-06
-1.39408e-06
-1.22163e-06
-1.08135e-06
-9.6608e-07
-8.70712e-07
-7.91519e-07
-7.25463e-07
-6.69755e-07
-6.21761e-07
-5.79186e-07
-5.40298e-07
-5.04031e-07
-4.69879e-07
-4.37668e-07
-4.07287e-07
-3.78528e-07
-3.5103e-07
-3.24359e-07
-2.98115e-07
-2.72045e-07
-2.46081e-07
-2.20339e-07
-1.95043e-07
-1.70459e-07
-1.46806e-07
-1.24224e-07
-1.0276e-07
-8.23999e-08
-6.30989e-08
-4.48225e-08
-2.74265e-08
-1.19279e-08
1.65328e-05
1.65257e-05
1.65073e-05
1.64774e-05
1.64356e-05
1.63798e-05
1.63068e-05
1.62122e-05
1.60899e-05
1.59318e-05
1.57279e-05
1.54651e-05
1.51276e-05
1.46955e-05
1.41449e-05
1.34471e-05
1.25688e-05
1.14724e-05
1.01178e-05
8.46538e-06
6.4809e-06
4.14286e-06
1.45228e-06
-1.55587e-06
-4.80143e-06
-8.15136e-06
-1.14203e-05
-1.4384e-05
-1.68094e-05
-1.84967e-05
-1.93257e-05
-1.92872e-05
-1.84856e-05
-1.71088e-05
-1.53775e-05
-1.34966e-05
-1.16256e-05
-9.87061e-06
-8.2915e-06
-6.91396e-06
-5.74052e-06
-4.75913e-06
-3.94958e-06
-3.28834e-06
-2.75188e-06
-2.31873e-06
-1.97009e-06
-1.6898e-06
-1.46404e-06
-1.28117e-06
-1.13175e-06
-1.00858e-06
-9.06402e-07
-8.21296e-07
-7.50104e-07
-6.89979e-07
-6.38269e-07
-5.9265e-07
-5.51314e-07
-5.13074e-07
-4.77285e-07
-4.43653e-07
-4.11993e-07
-3.82075e-07
-3.53556e-07
-3.26035e-07
-2.99137e-07
-2.72611e-07
-2.46366e-07
-2.20476e-07
-1.95121e-07
-1.70521e-07
-1.46863e-07
-1.24269e-07
-1.02778e-07
-8.23809e-08
-6.3037e-08
-4.47182e-08
-2.72852e-08
-1.17585e-08
1.65034e-05
1.64954e-05
1.64745e-05
1.64408e-05
1.63937e-05
1.63309e-05
1.62493e-05
1.6144e-05
1.60089e-05
1.58356e-05
1.5614e-05
1.5331e-05
1.49708e-05
1.4514e-05
1.39372e-05
1.3213e-05
1.23098e-05
1.11925e-05
9.82445e-06
8.17014e-06
6.20022e-06
3.89833e-06
1.27005e-06
-1.64693e-06
-4.77313e-06
-7.98121e-06
-1.10976e-05
-1.39157e-05
-1.62233e-05
-1.78403e-05
-1.86588e-05
-1.86698e-05
-1.7966e-05
-1.67149e-05
-1.51156e-05
-1.33561e-05
-1.15859e-05
-9.90796e-06
-8.38292e-06
-7.03955e-06
-5.88425e-06
-4.90886e-06
-4.09676e-06
-3.42738e-06
-2.87954e-06
-2.43337e-06
-2.07123e-06
-1.77774e-06
-1.53962e-06
-1.34557e-06
-1.18631e-06
-1.05461e-06
-9.45066e-07
-8.53582e-07
-7.76864e-07
-7.11995e-07
-6.56289e-07
-6.07386e-07
-5.63398e-07
-5.2302e-07
-4.85466e-07
-4.50319e-07
-4.17317e-07
-3.862e-07
-3.56638e-07
-3.28254e-07
-3.00695e-07
-2.73708e-07
-2.4718e-07
-2.21143e-07
-1.95728e-07
-1.71111e-07
-1.47447e-07
-1.24836e-07
-1.03312e-07
-8.2868e-08
-6.34686e-08
-4.50881e-08
-2.75812e-08
-1.19324e-08
1.64722e-05
1.64632e-05
1.64398e-05
1.6402e-05
1.63493e-05
1.62792e-05
1.61884e-05
1.60719e-05
1.59232e-05
1.57339e-05
1.54937e-05
1.51895e-05
1.48057e-05
1.43231e-05
1.37194e-05
1.29681e-05
1.20397e-05
1.09018e-05
9.52108e-06
7.86655e-06
5.91377e-06
3.65145e-06
1.08956e-06
-1.73183e-06
-4.73439e-06
-7.797e-06
-1.07583e-05
-1.34294e-05
-1.56188e-05
-1.71654e-05
-1.7973e-05
-1.80331e-05
-1.74266e-05
-1.63015e-05
-1.48358e-05
-1.32005e-05
-1.15348e-05
-9.9377e-06
-8.47031e-06
-7.16414e-06
-6.02932e-06
-5.06161e-06
-4.24802e-06
-3.57109e-06
-3.01202e-06
-2.55275e-06
-2.17684e-06
-1.86978e-06
-1.61886e-06
-1.41317e-06
-1.24361e-06
-1.10295e-06
-9.85656e-07
-8.87466e-07
-8.04944e-07
-7.35088e-07
-6.75169e-07
-6.22781e-07
-5.75959e-07
-5.33283e-07
-4.93835e-07
-4.57079e-07
-4.22669e-07
-3.90312e-07
-3.59676e-07
-3.30407e-07
-3.02164e-07