/*--------------------------------*- C++ -*----------------------------------*\
| =========                 |                                                 |
| \\      /  F ield         | OpenFOAM: The Open Source CFD Toolbox           |
|  \\    /   O peration     | Version:  2512                                  |
|   \\  /    A nd           | Website:  www.openfoam.com                      |
|    \\/     M anipulation  |                                                 |
\*---------------------------------------------------------------------------*/
FoamFile
{
    version     2.0;
    format      ascii;
    arch        "LSB;label=32;scalar=64";
    class       volScalarField;
    location    "100";
    object      p;
}
// * * * * * * * * * * * * * * * * * * * * * * * * * * * * * * * * * * * * * //

dimensions      [0 2 -2 0 0 0 0];

internalField   nonuniform List<scalar> 
220594
(
1.18045e-05
1.17922e-05
1.17608e-05
1.171e-05
1.16388e-05
1.1544e-05
1.14214e-05
1.12662e-05
1.10726e-05
1.08339e-05
1.05422e-05
1.01885e-05
9.76284e-06
9.25438e-06
8.65192e-06
7.9444e-06
7.12172e-06
6.17572e-06
5.1015e-06
3.89921e-06
2.57584e-06
1.14696e-06
-3.62069e-07
-1.91561e-06
-3.46789e-06
-4.96512e-06
-6.34853e-06
-7.55965e-06
-8.54643e-06
-9.26952e-06
-9.7073e-06
-9.85847e-06
-9.74175e-06
-9.39255e-06
-8.85747e-06
-8.18801e-06
-7.43475e-06
-6.64304e-06
-5.8504e-06
-5.08563e-06
-4.36904e-06
-3.71343e-06
-3.1254e-06
-2.60675e-06
-2.15582e-06
-1.76863e-06
-1.43981e-06
-1.1633e-06
-9.32884e-07
-7.4248e-07
-5.86393e-07
-4.59429e-07
-3.56954e-07
-2.74895e-07
-2.09711e-07
-1.58337e-07
-1.1814e-07
-8.6868e-08
-6.26177e-08
-4.38034e-08
-2.91279e-08
-1.75472e-08
-8.23793e-09
-5.63027e-10
5.95226e-09
1.16403e-08
1.67039e-08
2.123e-08
2.52055e-08
2.85394e-08
3.10889e-08
3.26874e-08
3.31711e-08
3.24015e-08
3.02797e-08
2.67591e-08
2.18562e-08
1.56576e-08
8.53598e-09
-2.88729e-10
1.18081e-05
1.1796e-05
1.17649e-05
1.17146e-05
1.16441e-05
1.15501e-05
1.14286e-05
1.12747e-05
1.10827e-05
1.08458e-05
1.05561e-05
1.02046e-05
9.78135e-06
9.27537e-06
8.67533e-06
7.96999e-06
7.149e-06
6.20391e-06
5.12947e-06
3.92546e-06
2.59852e-06
1.1639e-06
-3.53201e-07
-1.91695e-06
-3.48121e-06
-4.99129e-06
-6.38736e-06
-7.60962e-06
-8.60476e-06
-9.33239e-06
-9.77034e-06
-9.91742e-06
-9.79307e-06
-9.43385e-06
-8.88769e-06
-8.20729e-06
-7.44417e-06
-6.64423e-06
-5.84521e-06
-5.07588e-06
-4.35637e-06
-3.6992e-06
-3.11066e-06
-2.59227e-06
-2.14212e-06
-1.75604e-06
-1.42848e-06
-1.1533e-06
-9.24172e-07
-7.34979e-07
-5.79992e-07
-4.54e-07
-3.52369e-07
-2.71034e-07
-2.06464e-07
-1.55609e-07
-1.15847e-07
-8.49375e-08
-6.09875e-08
-4.24218e-08
-2.79548e-08
-1.65534e-08
-7.40392e-09
1.23579e-10
6.49923e-09
1.20538e-08
1.69904e-08
2.13978e-08
2.52654e-08
2.85052e-08
3.0977e-08
3.25171e-08
3.29634e-08
3.21789e-08
3.00652e-08
2.65743e-08
2.17196e-08
1.55814e-08
8.51001e-09
-2.5671e-10
1.18154e-05
1.18035e-05
1.1773e-05
1.17237e-05
1.16545e-05
1.15622e-05
1.14428e-05
1.12915e-05
1.11026e-05
1.08692e-05
1.05835e-05
1.02364e-05
9.81789e-06
9.31681e-06
8.7216e-06
8.02063e-06
7.20307e-06
6.25985e-06
5.18507e-06
3.97776e-06
2.64381e-06
1.19787e-06
-3.35141e-07
-1.91917e-06
-3.50718e-06
-5.04288e-06
-6.46421e-06
-7.70878e-06
-8.72067e-06
-9.4574e-06
-9.89572e-06
-1.00346e-05
-9.89504e-06
-9.51583e-06
-8.94757e-06
-8.24541e-06
-7.46269e-06
-6.6464e-06
-5.83474e-06
-5.05641e-06
-4.33113e-06
-3.67089e-06
-3.08137e-06
-2.56353e-06
-2.11496e-06
-1.73108e-06
-1.40606e-06
-1.13351e-06
-9.06955e-07
-7.20175e-07
-5.67379e-07
-4.43327e-07
-3.43383e-07
-2.63496e-07
-2.00157e-07
-1.50341e-07
-1.11448e-07
-8.12576e-08
-5.78976e-08
-3.98144e-08
-2.57452e-08
-1.46792e-08
-5.82218e-09
1.44085e-09
7.5706e-09
1.28934e-08
1.76115e-08
2.18155e-08
2.54975e-08
2.85735e-08
3.0907e-08
3.2338e-08
3.27076e-08
3.1881e-08
2.9761e-08
2.62997e-08
2.15074e-08
1.54578e-08
8.47914e-09
-1.8849e-10
1.1826e-05
1.18145e-05
1.17849e-05
1.1737e-05
1.16698e-05
1.158e-05
1.14638e-05
1.13163e-05
1.11318e-05
1.09036e-05
1.06238e-05
1.02833e-05
9.87182e-06
9.37805e-06
8.79004e-06
8.09562e-06
7.28325e-06
6.34296e-06
5.26783e-06
4.05577e-06
2.71157e-06
1.24896e-06
-3.0761e-07
-1.92176e-06
-3.54517e-06
-5.11917e-06
-6.57838e-06
-7.85646e-06
-8.89352e-06
-9.64392e-06
-1.00827e-05
-1.02093e-05
-1.00467e-05
-9.63739e-06
-9.036e-06
-8.3013e-06
-7.48939e-06
-6.64887e-06
-5.81854e-06
-5.02697e-06
-4.29329e-06
-3.62863e-06
-3.03779e-06
-2.52087e-06
-2.07472e-06
-1.69418e-06
-1.37295e-06
-1.10432e-06
-8.81601e-07
-6.98405e-07
-5.48857e-07
-4.2768e-07
-3.30234e-07
-2.52488e-07
-1.90969e-07
-1.42685e-07
-1.05069e-07
-7.59286e-08
-5.34237e-08
-3.60332e-08
-2.25295e-08
-1.19357e-08
-3.48734e-09
3.40863e-09
9.19853e-09
1.42018e-08
1.86188e-08
2.25415e-08
2.59651e-08
2.88095e-08
3.09429e-08
3.221e-08
3.24563e-08
3.15508e-08
2.93989e-08
2.59538e-08
2.12236e-08
1.52745e-08
8.41003e-09
-1.48901e-10
1.18399e-05
1.18287e-05
1.18003e-05
1.17543e-05
1.16896e-05
1.16031e-05
1.14909e-05
1.13484e-05
1.11697e-05
1.09483e-05
1.06763e-05
1.03443e-05
9.94202e-06
9.45786e-06
8.87935e-06
8.19364e-06
7.38823e-06
6.45202e-06
5.37671e-06
4.15873e-06
2.80137e-06
1.31712e-06
-2.702e-07
-1.92388e-06
-3.59396e-06
-5.21868e-06
-6.72822e-06
-8.05093e-06
-9.12157e-06
-9.89017e-06
-1.03296e-05
-1.04395e-05
-1.0246e-05
-9.79657e-06
-9.15112e-06
-8.37338e-06
-7.52304e-06
-6.65079e-06
-5.79617e-06
-4.98749e-06
-4.24305e-06
-3.57285e-06
-2.98049e-06
-2.46494e-06
-2.0221e-06
-1.64601e-06
-1.3298e-06
-1.06635e-06
-8.48651e-07
-6.70145e-07
-5.24839e-07
-4.07409e-07
-3.13214e-07
-2.38255e-07
-1.79102e-07
-1.32806e-07
-9.68416e-08
-6.90562e-08
-4.76493e-08
-3.11442e-08
-1.83604e-08
-8.36616e-09
-4.35646e-10
5.99544e-09
1.13556e-08
1.59554e-08
1.99928e-08
2.35609e-08
2.66579e-08
2.92078e-08
3.10838e-08
3.21358e-08
3.22148e-08
3.11946e-08
2.89844e-08
2.5539e-08
2.08654e-08
1.50214e-08
8.28618e-09
-1.47771e-10
1.18565e-05
1.18459e-05
1.18189e-05
1.17751e-05
1.17135e-05
1.16309e-05
1.15237e-05
1.13871e-05
1.12155e-05
1.10023e-05
1.07396e-05
1.04181e-05
1.00271e-05
9.55472e-06
8.98791e-06
8.313e-06
7.51637e-06
6.5855e-06
5.51041e-06
4.28565e-06
2.91264e-06
1.40231e-06
-2.22395e-07
-1.92445e-06
-3.652e-06
-5.33949e-06
-6.91159e-06
-8.28996e-06
-9.40255e-06
-1.01939e-05
-1.06338e-05
-1.07227e-05
-1.04906e-05
-9.99094e-06
-9.2907e-06
-8.45974e-06
-7.56219e-06
-6.65121e-06
-5.76715e-06
-4.93793e-06
-4.18073e-06
-3.50412e-06
-2.91021e-06
-2.39659e-06
-1.95796e-06
-1.58743e-06
-1.27743e-06
-1.02032e-06
-8.08773e-07
-6.35981e-07
-4.95832e-07
-3.82947e-07
-2.92692e-07
-2.21106e-07
-1.64815e-07
-1.20923e-07
-8.69553e-08
-6.0804e-08
-4.07189e-08
-2.5278e-08
-1.33589e-08
-4.08535e-09
3.22185e-09
9.09324e-09
1.39368e-08
1.80536e-08
2.16388e-08
2.47869e-08
2.74989e-08
2.97025e-08
3.12755e-08
3.20733e-08
3.19524e-08
3.0792e-08
2.85053e-08
2.50491e-08
2.04285e-08
1.46931e-08
8.09907e-09
-1.90766e-10
1.18756e-05
1.18656e-05
1.18402e-05
1.1799e-05
1.17408e-05
1.16628e-05
1.15612e-05
1.14315e-05
1.12681e-05
1.10644e-05
1.08126e-05
1.05031e-05
1.01253e-05
9.66666e-06
9.11361e-06
8.45152e-06
7.66547e-06
6.74129e-06
5.66702e-06
4.435e-06
3.0444e-06
1.50419e-06
-1.63814e-07
-1.92237e-06
-3.71747e-06
-5.47921e-06
-7.12568e-06
-8.57048e-06
-9.73326e-06
-1.05517e-05
-1.09922e-05
-1.10557e-05
-1.0777e-05
-1.02172e-05
-9.45178e-06
-8.55795e-06
-7.60504e-06
-6.64902e-06
-5.73102e-06
-4.87836e-06
-4.10683e-06
-3.42326e-06
-2.82797e-06
-2.31692e-06
-1.88344e-06
-1.51955e-06
-1.21687e-06
-9.67202e-07
-7.62814e-07
-5.96659e-07
-4.62478e-07
-3.54842e-07
-2.69128e-07
-2.01429e-07
-1.48433e-07
-1.07311e-07
-7.56409e-08
-5.13689e-08
-3.28019e-08
-1.85819e-08
-7.65488e-09
7.90978e-10
7.38151e-09
1.26096e-08
1.68612e-08
2.04277e-08
2.35022e-08
2.61801e-08
2.84651e-08
3.02877e-08
3.15292e-08
3.20498e-08
3.17112e-08
3.03976e-08
2.80259e-08
2.45543e-08
1.9985e-08
1.43585e-08
7.90853e-09
-2.34272e-10
1.18965e-05
1.18873e-05
1.18637e-05
1.18253e-05
1.1771e-05
1.1698e-05
1.16027e-05
1.14806e-05
1.13262e-05
1.11332e-05
1.08934e-05
1.05975e-05
1.02344e-05
9.79137e-06
9.25395e-06
8.60655e-06
7.83283e-06
6.91677e-06
5.84417e-06
4.60481e-06
3.19523e-06
1.62211e-06
-9.42072e-08
-1.91641e-06
-3.78824e-06
-5.63489e-06
-7.36692e-06
-8.88849e-06
-1.01094e-05
-1.09593e-05
-1.14001e-05
-1.14337e-05
-1.11007e-05
-1.04713e-05
-9.63087e-06
-8.66524e-06
-7.64966e-06
-6.64313e-06
-5.68745e-06
-4.80909e-06
-4.02214e-06
-3.33138e-06
-2.73508e-06
-2.22734e-06
-1.79993e-06
-1.44369e-06
-1.14936e-06
-9.08104e-07
-7.11771e-07
-5.53048e-07
-4.25529e-07
-3.23736e-07
-2.43069e-07
-1.79687e-07
-1.30354e-07
-9.2311e-08
-6.31955e-08
-4.10123e-08
-2.41312e-08
-1.12666e-08
-1.44122e-09
6.08447e-09
1.18777e-08
1.63911e-08
1.99883e-08
2.29513e-08
2.54715e-08
2.76457e-08
2.94786e-08
3.09026e-08
3.18007e-08
3.20364e-08
3.14757e-08
3.00072e-08
2.75508e-08
2.40645e-08
1.95469e-08
1.40279e-08
7.71877e-09
-2.81908e-10
1.1919e-05
1.19105e-05
1.18888e-05
1.18535e-05
1.18033e-05
1.17357e-05
1.16471e-05
1.15332e-05
1.13886e-05
1.1207e-05
1.09804e-05
1.06992e-05
1.03522e-05
9.92614e-06
9.40597e-06
8.77494e-06
8.0152e-06
7.10871e-06
6.03881e-06
4.79243e-06
3.36316e-06
1.75494e-06
-1.36579e-08
-1.90549e-06
-3.86202e-06
-5.80311e-06
-7.63094e-06
-9.2389e-06
-1.05255e-05
-1.14108e-05
-1.18518e-05
-1.18512e-05
-1.14565e-05
-1.07484e-05
-9.82392e-06
-8.77857e-06
-7.69407e-06
-6.63256e-06
-5.63634e-06
-4.73073e-06
-3.92778e-06
-3.22994e-06
-2.63318e-06
-2.12953e-06
-1.70911e-06
-1.36145e-06
-1.07636e-06
-8.4433e-07
-6.56791e-07
-5.06145e-07
-3.85837e-07
-2.90349e-07
-2.1512e-07
-1.56384e-07
-1.10995e-07
-7.62678e-08
-4.99037e-08
-2.99679e-08
-1.48981e-08
-3.48815e-09
5.15501e-09
1.16923e-08
1.66285e-08
2.03748e-08
2.3273e-08
2.55971e-08
2.75373e-08
2.91912e-08
3.05633e-08
3.15851e-08
3.21399e-08
3.20922e-08
3.13113e-08
2.96895e-08
2.71489e-08
2.36469e-08
1.91765e-08
1.37562e-08
7.57403e-09
-3.05163e-10
1.19423e-05
1.19346e-05
1.19149e-05
1.18827e-05
1.18369e-05
1.17749e-05
1.16934e-05
1.1588e-05
1.14538e-05
1.12841e-05
1.10713e-05
1.08057e-05
1.04758e-05
1.0068e-05
9.56633e-06
8.95308e-06
8.20877e-06
7.31326e-06
6.24724e-06
4.99455e-06
3.54548e-06
1.90094e-06
7.73003e-08
-1.88873e-06
-3.9364e-06
-5.97998e-06
-7.91249e-06
-9.61543e-06
-1.09744e-05
-1.18989e-05
-1.23398e-05
-1.2301e-05
-1.18377e-05
-1.10428e-05
-1.00264e-05
-8.89469e-06
-7.73635e-06
-6.61659e-06
-5.57797e-06
-4.6443e-06
-3.8253e-06
-3.12081e-06
-2.52427e-06
-2.02554e-06
-1.61294e-06
-1.27465e-06
-9.99507e-07
-7.77359e-07
-5.99174e-07
-4.57077e-07
-3.44373e-07
-2.55513e-07
-1.85987e-07
-1.32125e-07
-9.08729e-08
-5.96256e-08
-3.61486e-08
-1.85679e-08
-5.39296e-09
4.4975e-09
1.19056e-08
1.7409e-08
2.14478e-08
2.43924e-08
2.65644e-08
2.8232e-08
2.95848e-08
3.072e-08
3.16401e-08
3.22727e-08
3.2498e-08
3.218e-08
3.11896e-08
2.94221e-08
2.68017e-08
2.32846e-08
1.88578e-08
1.35271e-08
7.45782e-09
-3.18406e-10
1.19659e-05
1.1959e-05
1.19413e-05
1.19124e-05
1.1871e-05
1.18148e-05
1.17404e-05
1.16438e-05
1.152e-05
1.13627e-05
1.11641e-05
1.09146e-05
1.06024e-05
1.02135e-05
9.7313e-06
9.1369e-06
8.40923e-06
7.52596e-06
6.46504e-06
5.20706e-06
3.73875e-06
2.05763e-06
1.77526e-07
-1.86561e-06
-4.00899e-06
-6.16118e-06
-8.2055e-06
-1.00105e-05
-1.14477e-05
-1.24143e-05
-1.28548e-05
-1.27742e-05
-1.22364e-05
-1.1348e-05
-1.02333e-05
-9.01033e-06
-7.77478e-06
-6.59487e-06
-5.51306e-06
-4.55131e-06
-3.7167e-06
-3.00625e-06
-2.41073e-06
-1.91768e-06
-1.5136e-06
-1.18528e-06
-9.20606e-07
-7.0876e-07
-5.40272e-07
-4.06995e-07
-3.021e-07
-2.20024e-07
-1.56326e-07
-1.0744e-07
-7.0414e-08
-4.2723e-08
-2.21937e-08
-7.01269e-09
4.2365e-09
1.25851e-08
1.8739e-08
2.31888e-08
2.63099e-08
2.84339e-08
2.9866e-08
3.08711e-08
3.16399e-08
3.22683e-08
3.27536e-08
3.30164e-08
3.29303e-08
3.23561e-08
3.11648e-08
2.92546e-08
2.65518e-08
2.30117e-08
1.86156e-08
1.3357e-08
7.37875e-09
-3.17987e-10
1.19892e-05
1.19831e-05
1.19674e-05
1.19417e-05
1.19047e-05
1.18542e-05
1.17869e-05
1.16991e-05
1.15858e-05
1.14409e-05
1.12565e-05
1.10232e-05
1.07288e-05
1.03592e-05
9.89689e-06
9.32196e-06
8.61174e-06
7.74174e-06
6.68711e-06
5.42508e-06
3.93864e-06
2.22168e-06
2.85153e-07
-1.83612e-06
-4.07758e-06
-6.34211e-06
-8.50302e-06
-1.04151e-05
-1.19348e-05
-1.29459e-05
-1.33858e-05
-1.32605e-05
-1.26437e-05
-1.16567e-05
-1.04396e-05
-9.12231e-06
-7.80802e-06
-6.56754e-06
-5.44287e-06
-4.45377e-06
-3.60447e-06
-2.88897e-06
-2.29528e-06
-1.80859e-06
-1.41353e-06
-1.09557e-06
-8.41634e-07
-6.40275e-07
-4.816e-07
-3.57202e-07
-2.60136e-07
-1.84838e-07
-1.26953e-07
-8.30293e-08
-5.02213e-08
-2.608e-08
-8.48882e-09
4.30824e-09
1.36523e-08
2.04802e-08
2.53968e-08
2.88036e-08
3.10119e-08
3.23183e-08
3.30166e-08
3.33725e-08
3.35793e-08
3.37308e-08
3.38168e-08
3.37464e-08
3.33829e-08
3.25803e-08
3.12083e-08
2.91671e-08
2.63857e-08
2.28197e-08
1.84456e-08
1.32455e-08
7.34145e-09
-2.95349e-10
1.20116e-05
1.20063e-05
1.19926e-05
1.19699e-05
1.19372e-05
1.18922e-05
1.18319e-05
1.17526e-05
1.16495e-05
1.15166e-05
1.13462e-05
1.11286e-05
1.08519e-05
1.05013e-05
1.00588e-05
9.5035e-06
8.81111e-06
7.95505e-06
6.90773e-06
5.64298e-06
4.14004e-06
2.38893e-06
3.97505e-07
-1.80089e-06
-4.14025e-06
-6.51802e-06
-8.79742e-06
-1.08192e-05
-1.24236e-05
-1.34806e-05
-1.39196e-05
-1.37479e-05
-1.30493e-05
-1.19612e-05
-1.06397e-05
-9.22769e-06
-7.83517e-06
-6.53531e-06
-5.36924e-06
-4.35426e-06
-3.49155e-06
-2.77203e-06
-2.18092e-06
-1.70107e-06
-1.31531e-06
-1.00779e-06
-7.64571e-07
-5.73599e-07
-4.24588e-07
-3.08889e-07
-2.19456e-07
-1.50744e-07
-9.84981e-08
-5.93907e-08
-3.06817e-08
-9.99221e-09
4.74638e-09
1.52377e-08
2.27481e-08
2.81169e-08
3.18445e-08
3.42417e-08
3.55578e-08
3.60595e-08
3.60352e-08
3.57566e-08
3.54225e-08
3.51252e-08
3.4844e-08
3.44733e-08
3.38617e-08
3.28535e-08
3.13148e-08
2.91471e-08
2.62828e-08
2.26791e-08
1.83096e-08
1.31474e-08
7.29705e-09
-2.92787e-10
1.20327e-05
1.2028e-05
1.20161e-05
1.19964e-05
1.19677e-05
1.19279e-05
1.18741e-05
1.18028e-05
1.17094e-05
1.15878e-05
1.14307e-05
1.12283e-05
1.09684e-05
1.06361e-05
1.02128e-05
9.67662e-06
9.00185e-06
8.15995e-06
7.12065e-06
5.85452e-06
4.33704e-06
2.55438e-06
5.11076e-07
-1.76124e-06
-4.19553e-06
-6.68416e-06
-9.08055e-06
-1.12113e-05
-1.29005e-05
-1.40036e-05
-1.44415e-05
-1.42228e-05
-1.34421e-05
-1.22531e-05
-1.08286e-05
-9.32393e-06
-7.85592e-06
-6.49953e-06
-5.29462e-06
-4.25588e-06
-3.38134e-06
-2.65887e-06
-2.07095e-06
-1.59818e-06
-1.22169e-06
-9.24405e-07
-6.91574e-07
-5.10607e-07
-3.70851e-07
-2.63442e-07
-1.81245e-07
-1.18755e-07
-7.18265e-08
-3.72646e-08
-1.24301e-08
4.99578e-09
1.70443e-08
2.53745e-08
3.11802e-08
3.52023e-08
3.78344e-08
3.9296e-08
3.97771e-08
3.95193e-08
3.88117e-08
3.79376e-08
3.7105e-08
3.64052e-08
3.58059e-08
3.51838e-08
3.43688e-08
3.31923e-08
3.15142e-08
2.92367e-08
2.62957e-08
2.26515e-08
1.82774e-08
1.31395e-08
7.32618e-09
-2.38853e-10
1.20517e-05
1.20477e-05
1.20375e-05
1.20205e-05
1.19954e-05
1.19603e-05
1.19125e-05
1.18486e-05
1.17639e-05
1.16529e-05
1.15079e-05
1.13194e-05
1.10752e-05
1.07599e-05
1.03546e-05
9.83637e-06
9.17843e-06
8.35033e-06
7.31935e-06
6.05302e-06
4.52319e-06
2.71232e-06
6.21614e-07
-1.71922e-06
-4.24248e-06
-6.836e-06
-9.34402e-06
-1.15795e-05
-1.33507e-05
-1.44983e-05
-1.49351e-05
-1.46707e-05
-1.38103e-05
-1.2524e-05
-1.10012e-05
-9.40903e-06
-7.87058e-06
-6.4621e-06
-5.22196e-06
-4.16209e-06
-3.27747e-06
-2.55305e-06
-1.96871e-06
-1.50294e-06
-1.13532e-06
-8.47693e-07
-6.24581e-07
-4.52917e-07
-3.21726e-07
-2.21947e-07
-1.46378e-07
-8.95645e-08
-4.74835e-08
-1.70716e-08
4.21493e-09
1.8647e-08
2.82315e-08
3.45927e-08
3.88577e-08
4.16705e-08
4.33189e-08
4.39326e-08
4.36449e-08
4.26775e-08
4.13259e-08
3.98904e-08
3.85923e-08
3.75239e-08
3.66417e-08
3.58024e-08
3.48154e-08
3.34958e-08
3.16958e-08
2.93166e-08
2.6298e-08
2.2605e-08
1.82122e-08
1.30823e-08
7.29263e-09
-2.45935e-10
1.20683e-05
1.20649e-05
1.20562e-05
1.20414e-05
1.20196e-05
1.19887e-05
1.19461e-05
1.18886e-05
1.18118e-05
1.17099e-05
1.15757e-05
1.13996e-05
1.11692e-05
1.08691e-05
1.04799e-05
9.97797e-06
9.3354e-06
8.52013e-06
7.49729e-06
6.23163e-06
4.69176e-06
2.85663e-06
7.24301e-07
-1.67752e-06
-4.28078e-06
-6.96946e-06
-9.57953e-06
-1.19115e-05
-1.37585e-05
-1.49475e-05
-1.53832e-05
-1.50762e-05
-1.41418e-05
-1.27658e-05
-1.1153e-05
-9.48156e-06
-7.88002e-06
-6.42547e-06
-5.1546e-06
-4.07667e-06
-3.18382e-06
-2.45829e-06
-1.87763e-06
-1.41846e-06
-1.05896e-06
-7.80063e-07
-5.65672e-07
-4.02314e-07
-2.78734e-07
-1.85699e-07
-1.15957e-07
-6.41103e-08
-2.62635e-08
5.18631e-10
1.86943e-08
3.04985e-08
3.79269e-08
4.25794e-08
4.55249e-08
4.73161e-08
4.8139e-08
4.80366e-08
4.70893e-08
4.55023e-08
4.35818e-08
4.1649e-08
3.99419e-08
3.85567e-08
3.74395e-08
3.64274e-08
3.53082e-08
3.38793e-08
3.19831e-08
2.9519e-08
2.64305e-08
2.26881e-08
1.82702e-08
1.31378e-08
7.35808e-09
-1.76672e-10
1.20821e-05
1.20791e-05
1.20716e-05
1.20588e-05
1.20396e-05
1.20122e-05
1.1974e-05
1.19219e-05
1.18516e-05
1.17575e-05
1.16323e-05
1.14665e-05
1.12479e-05
1.09606e-05
1.0585e-05
1.0097e-05
9.46769e-06
8.66365e-06
7.64821e-06
6.38374e-06
4.83608e-06
2.98111e-06
8.14068e-07
-1.63921e-06
-4.31062e-06
-7.08102e-06
-9.77933e-06
-1.21952e-05
-1.41085e-05
-1.5334e-05
-1.57688e-05
-1.54243e-05
-1.44251e-05
-1.29708e-05
-1.128e-05
-9.54065e-06
-7.88556e-06
-6.39233e-06
-5.09598e-06
-4.00335e-06
-3.10407e-06
-2.37805e-06
-1.80083e-06
-1.34745e-06
-9.94949e-07
-7.23491e-07
-5.16489e-07
-3.60144e-07
-2.42966e-07
-1.55576e-07
-9.06855e-08
-4.29581e-08
-8.61805e-09
1.51507e-08
3.07324e-08
4.03385e-08
4.59644e-08
4.91977e-08
5.10595e-08
5.20223e-08
5.21789e-08
5.1493e-08
4.99965e-08
4.78814e-08
4.54664e-08
4.3096e-08
4.10273e-08
3.93632e-08
3.80422e-08
3.68841e-08
3.56555e-08
3.41364e-08
3.21586e-08
2.9619e-08
2.64643e-08
2.26711e-08
1.82229e-08
1.3082e-08
7.311e-09
-2.00962e-10
1.20926e-05
1.209e-05
1.20835e-05
1.20722e-05
1.20551e-05
1.20303e-05
1.19955e-05
1.19476e-05
1.18823e-05
1.17942e-05
1.1676e-05
1.15183e-05
1.13088e-05
1.10316e-05
1.06667e-05
1.01897e-05
9.57087e-06
8.77584e-06
7.76649e-06
6.50336e-06
4.95002e-06
3.07993e-06
8.86003e-07
-1.60753e-06
-4.33265e-06
-7.16786e-06
-9.93661e-06
-1.24198e-05
-1.43866e-05
-1.56416e-05
-1.60757e-05
-1.5701e-05
-1.46494e-05
-1.31322e-05
-1.13792e-05
-9.58598e-06
-7.88882e-06
-6.36548e-06
-5.04949e-06
-3.9457e-06
-3.04171e-06
-2.31557e-06
-1.74124e-06
-1.29252e-06
-9.45546e-07
-6.79922e-07
-4.7869e-07
-3.27804e-07
-2.15592e-07
-1.32559e-07
-7.13875e-08
-2.67984e-08
4.87828e-09
2.63565e-08
3.99601e-08
4.78865e-08
5.21397e-08
5.4304e-08
5.53659e-08
5.57321e-08
5.54166e-08
5.43141e-08
5.24143e-08
4.98978e-08
4.70955e-08
4.43749e-08
4.2013e-08
4.01218e-08
3.8636e-08
3.73614e-08
3.6047e-08
3.44569e-08
3.24129e-08
2.98089e-08
2.65946e-08
2.2753e-08
1.82734e-08
1.31206e-08
7.35302e-09
-1.49959e-10
1.20997e-05
1.20973e-05
1.20914e-05
1.20811e-05
1.20654e-05
1.20425e-05
1.201e-05
1.19649e-05
1.1903e-05
1.1819e-05
1.17056e-05
1.15535e-05
1.13502e-05
1.10798e-05
1.07224e-05
1.02529e-05
9.64134e-06
8.8526e-06
7.84756e-06
6.5855e-06
5.02844e-06
3.14813e-06
9.35831e-07
-1.5854e-06
-4.34768e-06
-7.22795e-06
-1.00459e-05
-1.25763e-05
-1.45808e-05
-1.58566e-05
-1.62903e-05
-1.58943e-05
-1.48059e-05
-1.32446e-05
-1.14481e-05
-9.61751e-06
-7.89134e-06
-6.34735e-06
-5.01799e-06
-3.90666e-06
-2.99955e-06
-2.27341e-06
-1.70111e-06
-1.25558e-06
-9.12384e-07
-6.5072e-07
-4.534e-07
-3.0621e-07
-1.9735e-07
-1.17244e-07
-5.8552e-08
-1.60391e-08
1.38829e-08
3.38499e-08
4.61413e-08
5.29485e-08
5.62879e-08
5.7749e-08
5.82976e-08
5.82934e-08
5.76912e-08
5.63315e-08
5.41701e-08
5.13779e-08
4.8296e-08
4.53116e-08
4.27209e-08
4.06468e-08
3.90243e-08
3.76505e-08
3.62617e-08
3.46096e-08
3.25075e-08
2.9847e-08
2.65803e-08
2.26961e-08
1.81901e-08
1.30313e-08
7.27806e-09
-1.86717e-10
1.21031e-05
1.21008e-05
1.20952e-05
1.20854e-05
1.20704e-05
1.20484e-05
1.20171e-05
1.19734e-05
1.19132e-05
1.18313e-05
1.17203e-05
1.15709e-05
1.13708e-05
1.11039e-05
1.07501e-05
1.02845e-05
9.67659e-06
8.89101e-06
7.88815e-06
6.62661e-06
5.06764e-06
3.18209e-06
9.6038e-07
-1.57507e-06
-4.35645e-06
-7.25995e-06
-1.01033e-05
-1.26582e-05
-1.46822e-05
-1.5969e-05
-1.64025e-05
-1.59956e-05
-1.48882e-05
-1.33041e-05
-1.14852e-05
-9.6354e-06
-7.89438e-06
-6.33984e-06
-5.00363e-06
-3.88843e-06
-2.97967e-06
-2.25347e-06
-1.68211e-06
-1.23811e-06
-8.96722e-07
-6.36958e-07
-4.41517e-07
-2.96103e-07
-1.88848e-07
-1.10127e-07
-5.25846e-08
-1.10124e-08
1.81287e-08
3.74262e-08
4.91327e-08
5.54385e-08
5.83731e-08
5.95356e-08
5.98854e-08
5.97575e-08
5.90702e-08
5.76288e-08
5.53649e-08
5.24413e-08
4.92057e-08
4.606e-08
4.33168e-08
4.11109e-08
3.93818e-08
3.79247e-08
3.64691e-08
3.47596e-08
3.26042e-08
2.98927e-08
2.65797e-08
2.26592e-08
1.81329e-08
1.29738e-08
7.24105e-09
-1.82698e-10
1.21027e-05
1.21005e-05
1.20948e-05
1.2085e-05
1.207e-05
1.20479e-05
1.20166e-05
1.19728e-05
1.19126e-05
1.18306e-05
1.17196e-05
1.15702e-05
1.13699e-05
1.1103e-05
1.07491e-05
1.02833e-05
9.67531e-06
8.8896e-06
7.88657e-06
6.62486e-06
5.06569e-06
3.17992e-06
9.57973e-07
-1.57773e-06
-4.3594e-06
-7.2632e-06
-1.01069e-05
-1.2662e-05
-1.46864e-05
-1.59733e-05
-1.6407e-05
-1.60001e-05
-1.48927e-05
-1.33085e-05
-1.14896e-05
-9.63972e-06
-7.8986e-06
-6.34391e-06
-5.00751e-06
-3.89209e-06
-2.98311e-06
-2.25667e-06
-1.68506e-06
-1.2408e-06
-8.99147e-07
-6.39128e-07
-4.43451e-07
-2.9782e-07
-1.90361e-07
-1.11435e-07
-5.36803e-08
-1.18911e-08
1.74597e-08
3.69455e-08
4.88109e-08
5.52483e-08
5.8298e-08
5.95717e-08
6.00364e-08
6.00253e-08
5.94468e-08
5.80921e-08
5.58803e-08
5.29681e-08
4.97049e-08
4.65013e-08
4.36821e-08
4.13938e-08
3.95853e-08
3.80563e-08
3.65374e-08
3.47717e-08
3.25658e-08
2.98094e-08
2.64593e-08
2.25135e-08
1.79788e-08
1.28331e-08
7.13784e-09
-2.19211e-10
1.20985e-05
1.20962e-05
1.20902e-05
1.20799e-05
1.20641e-05
1.20411e-05
1.20085e-05
1.19632e-05
1.19012e-05
1.18171e-05
1.17035e-05
1.15512e-05
1.13476e-05
1.1077e-05
1.07193e-05
1.02495e-05
9.63753e-06
8.84836e-06
7.84284e-06
6.58025e-06
5.0226e-06
3.14164e-06
9.28636e-07
-1.59337e-06
-4.35648e-06
-7.23765e-06
-1.00565e-05
-1.25878e-05
-1.45931e-05
-1.58696e-05
-1.63037e-05
-1.59078e-05
-1.48194e-05
-1.32579e-05
-1.14612e-05
-9.6304e-06
-7.90392e-06
-6.35949e-06
-5.02957e-06
-3.91761e-06
-3.00981e-06
-2.28296e-06
-1.70991e-06
-1.26361e-06
-9.19628e-07
-6.57202e-07
-4.59173e-07
-3.11331e-07
-2.01855e-07
-1.21133e-07
-6.18039e-08
-1.86398e-08
1.19124e-08
3.24472e-08
4.52199e-08
5.2428e-08
5.61187e-08
5.79177e-08
5.88127e-08
5.91589e-08
5.88814e-08
5.77797e-08
5.5773e-08
5.30142e-08
4.98497e-08
4.66918e-08
4.38725e-08
4.15503e-08
3.96868e-08
3.80939e-08
3.65108e-08
3.4686e-08
3.24289e-08
2.96308e-08
2.62506e-08
2.22894e-08
1.77582e-08
1.26387e-08
6.99646e-09
-2.73441e-10
1.20907e-05
1.20881e-05
1.20815e-05
1.20701e-05
1.20529e-05
1.2028e-05
1.1993e-05
1.19448e-05
1.18793e-05
1.1791e-05
1.16725e-05
1.15145e-05
1.13046e-05
1.10269e-05
1.06616e-05
1.0184e-05
9.56456e-06
8.76882e-06
7.75867e-06
6.49466e-06
4.94034e-06
3.06919e-06
8.74096e-07
-1.62071e-06
-4.34721e-06
-7.18388e-06
-9.95414e-06
-1.24388e-05
-1.4407e-05
-1.5663e-05
-1.60977e-05
-1.57232e-05
-1.46715e-05
-1.31541e-05
-1.14008e-05
-9.6072e-06
-7.90954e-06
-6.38548e-06
-5.06859e-06
-3.96377e-06
-3.05866e-06
-2.33135e-06
-1.75579e-06
-1.3058e-06
-9.57551e-07
-6.90676e-07
-4.88275e-07
-3.36308e-07
-2.23073e-07
-1.39021e-07
-7.67965e-08
-3.11335e-08
1.58421e-09
2.40052e-08
3.84141e-08
4.70164e-08
5.1863e-08
5.45946e-08
5.6232e-08
5.71742e-08
5.7389e-08
5.67055e-08
5.50558e-08
5.25913e-08
4.96514e-08
4.66434e-08
4.39019e-08
4.15964e-08
3.97055e-08
3.80597e-08
3.64146e-08
3.45306e-08
3.22241e-08
2.93903e-08
2.599e-08
2.20262e-08
1.75126e-08
1.24344e-08
6.8606e-09
-3.0977e-10
1.20794e-05
1.20764e-05
1.20688e-05
1.20559e-05
1.20366e-05
1.2009e-05
1.19706e-05
1.19181e-05
1.18475e-05
1.1753e-05
1.16275e-05
1.14612e-05
1.1242e-05
1.09542e-05
1.05779e-05
1.00891e-05
9.45892e-06
8.6539e-06
7.63735e-06
6.37167e-06
4.82266e-06
2.96622e-06
7.97571e-07
-1.65746e-06
-4.33074e-06
-7.10313e-06
-9.80349e-06
-1.22213e-05
-1.41365e-05
-1.53633e-05
-1.57989e-05
-1.54548e-05
-1.44555e-05
-1.30009e-05
-1.13097e-05
-9.56985e-06
-7.91407e-06
-6.41987e-06
-5.1223e-06
-4.02827e-06
-3.12746e-06
-2.39984e-06
-1.82096e-06
-1.36586e-06
-1.0116e-06
-7.38429e-07
-5.29809e-07
-3.71961e-07
-2.53356e-07
-1.64546e-07
-9.81961e-08
-4.89821e-08
-1.31971e-08
1.18902e-08
2.86106e-08
3.91825e-08
4.5659e-08
4.96986e-08
5.23659e-08
5.41234e-08
5.50041e-08
5.48864e-08
5.37267e-08
5.16787e-08
4.90712e-08
4.63015e-08
4.37028e-08
4.14552e-08
3.95576e-08
3.78651e-08
3.61566e-08
3.42104e-08
3.18541e-08
2.89881e-08
2.55754e-08
2.16197e-08
1.71362e-08
1.21132e-08
6.62522e-09
-4.16058e-10
1.20649e-05
1.20615e-05
1.20526e-05
1.20377e-05
1.20157e-05
1.19845e-05
1.19417e-05
1.18838e-05
1.18066e-05
1.17043e-05
1.15696e-05
1.13929e-05
1.11618e-05
1.08609e-05
1.04708e-05
9.96793e-06
9.32424e-06
8.50772e-06
7.48349e-06
6.21629e-06
4.67472e-06
2.83773e-06
7.03382e-07
-1.70062e-06
-4.30622e-06
-6.99737e-06
-9.60996e-06
-1.19443e-05
-1.37935e-05
-1.49843e-05
-1.5421e-05
-1.51144e-05
-1.418e-05
-1.28036e-05
-1.11903e-05
-9.51826e-06
-7.91586e-06
-6.46012e-06
-5.18776e-06
-4.1081e-06
-3.21336e-06
-2.48585e-06
-1.90312e-06
-1.4418e-06
-1.08012e-06
-7.99074e-07
-5.8264e-07
-4.1737e-07
-2.91968e-07
-1.97124e-07
-1.2553e-07
-7.18018e-08
-3.21196e-08
-3.64815e-09
1.60049e-08
2.9077e-08
3.76255e-08
4.33296e-08
4.73072e-08
5.00998e-08
5.18236e-08
5.2422e-08
5.18861e-08
5.03751e-08
4.82065e-08
4.57637e-08
4.3376e-08
4.12339e-08
3.93593e-08
3.76369e-08
3.58744e-08
3.38727e-08
3.1474e-08
2.85854e-08
2.51718e-08
2.12369e-08
1.67963e-08
1.18404e-08
6.4476e-09
-4.66343e-10
1.20476e-05
1.20436e-05
1.20332e-05
1.2016e-05
1.19907e-05
1.19553e-05
1.19072e-05
1.18428e-05
1.17577e-05
1.16461e-05
1.15005e-05
1.13113e-05
1.10662e-05
1.075e-05
1.03436e-05
9.82425e-06
9.16497e-06
8.33536e-06
7.30272e-06
6.03453e-06
4.50267e-06
2.68958e-06
5.96476e-07
-1.74695e-06
-4.27295e-06
-6.86936e-06
-9.38029e-06
-1.16186e-05
-1.33922e-05
-1.45418e-05
-1.49798e-05
-1.4716e-05
-1.38555e-05
-1.2569e-05
-1.10456e-05
-9.45269e-06
-7.91323e-06
-6.50337e-06
-5.2615e-06
-4.19962e-06
-3.3128e-06
-2.58606e-06
-1.99928e-06
-1.531e-06
-1.16081e-06
-8.70636e-07
-6.45082e-07
-4.71112e-07
-3.37715e-07
-2.35747e-07
-1.57949e-07
-9.88715e-08
-5.45752e-08
-2.2105e-08
1.00614e-09
1.70234e-08
2.80135e-08
3.56812e-08
4.12054e-08
4.52175e-08
4.79297e-08
4.93626e-08
4.95507e-08
4.86634e-08
4.70075e-08
4.49517e-08
4.28202e-08
4.08146e-08
3.89818e-08
3.72394e-08
3.54277e-08
3.33739e-08
3.09367e-08
2.80311e-08
2.46237e-08
2.07174e-08
1.63277e-08
1.14472e-08
6.16071e-09
-6.01034e-10
1.20279e-05
1.20232e-05
1.20111e-05
1.19912e-05
1.19622e-05
1.1922e-05
1.18678e-05
1.1796e-05
1.1702e-05
1.15799e-05
1.1422e-05
1.12188e-05
1.0958e-05
1.06246e-05
1.02001e-05
9.66251e-06
8.98619e-06
8.14255e-06
7.10131e-06
5.83304e-06
4.31321e-06
2.528e-06
4.81954e-07
-1.7933e-06
-4.2307e-06
-6.72256e-06
-9.1222e-06
-1.12561e-05
-1.2948e-05
-1.40532e-05
-1.44925e-05
-1.42745e-05
-1.34938e-05
-1.23045e-05
-1.08794e-05
-9.37394e-06
-7.9048e-06
-6.54688e-06
-5.34005e-06
-4.29906e-06
-3.42206e-06
-2.69697e-06
-2.10632e-06
-1.6307e-06
-1.25129e-06
-9.51109e-07
-7.15469e-07
-5.31825e-07
-3.89493e-07
-2.7953e-07
-1.9474e-07
-1.29622e-07
-8.01118e-08
-4.31281e-08
-1.61185e-08
3.21988e-09
1.69704e-08
2.68686e-08
3.4159e-08
3.95685e-08
4.34129e-08
4.57975e-08
4.68073e-08
4.66268e-08
4.55549e-08
4.39471e-08
4.2123e-08
4.02952e-08
3.85372e-08
3.6801e-08
3.49613e-08
3.28734e-08
3.04136e-08
2.75054e-08
2.41172e-08
2.02508e-08
1.59211e-08
1.11229e-08
5.94574e-09
-6.73601e-10
1.20062e-05
1.20008e-05
1.19869e-05
1.1964e-05
1.1931e-05
1.18855e-05
1.18247e-05
1.17449e-05
1.16411e-05
1.15075e-05
1.13363e-05
1.11178e-05
1.08401e-05
1.04882e-05
1.00444e-05
9.48751e-06
8.79336e-06
7.93534e-06
6.88583e-06
5.61867e-06
4.1131e-06
2.35915e-06
3.64657e-07
-1.83699e-06
-4.17976e-06
-6.56105e-06
-8.84396e-06
-1.0869e-05
-1.24764e-05
-1.35358e-05
-1.39762e-05
-1.38053e-05
-1.31068e-05
-1.20184e-05
-1.06964e-05
-9.28341e-06
-7.88967e-06
-6.58817e-06
-5.42002e-06
-4.40262e-06
-3.53723e-06
-2.81485e-06
-2.22074e-06
-1.73777e-06
-1.3488e-06
-1.03807e-06
-7.91707e-07
-5.97712e-07
-4.45773e-07
-3.27171e-07
-2.34797e-07
-1.63108e-07
-1.07926e-07
-6.60396e-08
-3.48034e-08
-1.1866e-08
4.88111e-09
1.72096e-08
2.64318e-08
3.33716e-08
3.84509e-08
4.18645e-08
4.37535e-08
4.43236e-08
4.3871e-08
4.27407e-08
4.12495e-08
3.96221e-08
3.79581e-08
3.62441e-08
3.43896e-08
3.22778e-08
2.98033e-08
2.68984e-08
2.35331e-08
1.97085e-08
1.54395e-08
1.07234e-08
5.6572e-09
-8.07808e-10
1.19831e-05
1.19769e-05
1.19611e-05
1.19351e-05
1.18977e-05
1.18467e-05
1.1779e-05
1.16905e-05
1.15765e-05
1.14308e-05
1.12455e-05
1.10111e-05
1.07157e-05
1.03446e-05
9.88084e-06
9.30419e-06
8.59203e-06
7.71986e-06
6.66282e-06
5.39812e-06
3.9088e-06
2.18872e-06
2.48857e-07
-1.87594e-06
-4.12106e-06
-6.38934e-06
-8.55395e-06
-1.04695e-05
-1.19922e-05
-1.30058e-05
-1.34473e-05
-1.33229e-05
-1.27063e-05
-1.17191e-05
-1.05013e-05
-9.18312e-06
-7.86754e-06
-6.62533e-06
-5.49847e-06
-4.50682e-06
-3.65467e-06
-2.93612e-06
-2.33922e-06
-1.84918e-06
-1.45066e-06
-1.12921e-06
-8.71838e-07
-6.67136e-07
-5.05203e-07
-3.77569e-07
-2.77228e-07
-1.98619e-07
-1.37457e-07
-9.04062e-08
-5.47215e-08
-2.79938e-08
-8.08123e-09
6.82776e-09
1.81127e-08
2.66924e-08
3.30932e-08
3.76011e-08
4.04175e-08
4.17753e-08
4.19736e-08
4.13515e-08
4.0225e-08
3.88307e-08
3.72934e-08
3.56325e-08
3.37908e-08
3.16785e-08
2.92082e-08
2.63208e-08
2.29887e-08
1.92129e-08
1.50086e-08
1.03766e-08
5.42057e-09
-8.99653e-10
1.19592e-05
1.19522e-05
1.19344e-05
1.19051e-05
1.18633e-05
1.18066e-05
1.17316e-05
1.16344e-05
1.15098e-05
1.13517e-05
1.11521e-05
1.09014e-05
1.0588e-05
1.01976e-05
9.71376e-06
9.11749e-06
8.3877e-06
7.50206e-06
6.43852e-06
5.17765e-06
3.70622e-06
2.02173e-06
1.38066e-07
-1.90881e-06
-4.05607e-06
-6.21217e-06
-8.26033e-06
-1.00689e-05
-1.15092e-05
-1.24783e-05
-1.29206e-05
-1.2841e-05
-1.23034e-05
-1.14148e-05
-1.02996e-05
-9.07561e-06
-7.83872e-06
-6.65702e-06
-5.57296e-06
-4.60856e-06
-3.77099e-06