/*--------------------------------*- C++ -*----------------------------------*\
| =========                 |                                                 |
| \\      /  F ield         | OpenFOAM: The Open Source CFD Toolbox           |
|  \\    /   O peration     | Version:  2512                                  |
|   \\  /    A nd           | Website:  www.openfoam.com                      |
|    \\/     M anipulation  |                                                 |
\*---------------------------------------------------------------------------*/
FoamFile
{
    version     2.0;
    format      ascii;
    arch        "LSB;label=32;scalar=64";
    class       volScalarField;
    location    "100";
    object      p;
}
// * * * * * * * * * * * * * * * * * * * * * * * * * * * * * * * * * * * * * //

dimensions      [0 2 -2 0 0 0 0];

internalField   nonuniform List<scalar> 
335663
(
0.000340737
0.000340325
0.000339277
0.000337596
0.000335253
0.000332153
0.000328164
0.00032313
0.000316867
0.00030916
0.000299759
0.000288384
0.000274724
0.000258447
0.000239211
0.000216681
0.000190558
0.000160608
0.00012671
8.89036e-05
4.74474e-05
2.86809e-06
-4.3999e-05
-9.19939e-05
-0.000139652
-0.00018527
-0.00022702
-0.000263118
-0.00029201
-0.000312566
-0.00032422
-0.000327037
-0.000321687
-0.00030933
-0.000291442
-0.000269621
-0.000245417
-0.000220202
-0.000195099
-0.000170963
-0.000148386
-0.000127736
-0.000109192
-9.27945e-05
-7.8481e-05
-6.61229e-05
-5.55533e-05
-4.65863e-05
-3.90324e-05
-3.27066e-05
-2.74356e-05
-2.30612e-05
-1.94425e-05
-1.64561e-05
-1.39961e-05
-1.19714e-05
-1.03047e-05
-8.93034e-06
-7.79293e-06
-6.84609e-06
-6.05184e-06
-5.37922e-06
-4.80353e-06
-4.30475e-06
-3.86676e-06
-3.47615e-06
-3.1219e-06
-2.79492e-06
-2.48824e-06
-2.1969e-06
-1.91814e-06
-1.65109e-06
-1.39662e-06
-1.15673e-06
-9.34283e-07
-7.32357e-07
-5.54007e-07
-4.01207e-07
-2.71436e-07
-1.84618e-07
0.000340861
0.000340452
0.000339414
0.000337749
0.000335427
0.000332355
0.0003284
0.000323407
0.000317193
0.000309543
0.000300206
0.000288901
0.000275317
0.000259116
0.000239954
0.000217491
0.000191417
0.000161491
0.00012758
8.97121e-05
4.81354e-05
3.36819e-06
-4.3757e-05
-9.20754e-05
-0.000140107
-0.000186123
-0.000228259
-0.000264691
-0.000293826
-0.000314503
-0.000326142
-0.000328814
-0.000323215
-0.00031054
-0.000292308
-0.000270153
-0.000245651
-0.000220189
-0.000194898
-0.000170629
-0.000147969
-0.000127276
-0.000108722
-9.23366e-05
-7.80507e-05
-6.57296e-05
-5.52013e-05
-4.62768e-05
-3.87638e-05
-3.24762e-05
-2.72397e-05
-2.28957e-05
-1.93033e-05
-1.63396e-05
-1.38988e-05
-1.18904e-05
-1.02376e-05
-8.87474e-06
-7.74675e-06
-6.80747e-06
-6.01911e-06
-5.35106e-06
-4.77888e-06
-4.28292e-06
-3.84731e-06
-3.45888e-06
-3.10675e-06
-2.78193e-06
-2.47746e-06
-2.18841e-06
-1.91193e-06
-1.64713e-06
-1.39477e-06
-1.15678e-06
-9.3587e-07
-7.35038e-07
-5.57181e-07
-4.04197e-07
-2.73627e-07
-1.84278e-07
0.000341104
0.000340703
0.000339685
0.00033805
0.000335771
0.000332753
0.000328866
0.000323955
0.000317838
0.000310299
0.000301089
0.000289924
0.000276488
0.00026044
0.000241426
0.000219095
0.000193122
0.000163245
0.00012931
9.13241e-05
4.95108e-05
4.37275e-06
-4.32638e-05
-9.22246e-05
-0.000141
-0.000187808
-0.000230716
-0.000267816
-0.000297437
-0.000318356
-0.000329966
-0.000332349
-0.000326251
-0.000312943
-0.000294025
-0.000271204
-0.000246109
-0.00022016
-0.000194495
-0.000169963
-0.000147139
-0.000126363
-0.000107788
-9.14279e-05
-7.71973e-05
-6.49494e-05
-5.45031e-05
-4.56626e-05
-3.82311e-05
-3.20194e-05
-2.68514e-05
-2.25679e-05
-1.9028e-05
-1.61094e-05
-1.3707e-05
-1.17313e-05
-1.01059e-05
-8.76602e-06
-7.65678e-06
-6.73248e-06
-5.95584e-06
-5.29682e-06
-4.73163e-06
-4.24126e-06
-3.81038e-06
-3.42625e-06
-3.07823e-06
-2.75751e-06
-2.4572e-06
-2.17234e-06
-1.90004e-06
-1.6393e-06
-1.39076e-06
-1.15621e-06
-9.38155e-07
-7.39397e-07
-5.62603e-07
-4.09488e-07
-2.7757e-07
-1.85466e-07
0.000341462
0.000341072
0.000340083
0.000338494
0.000336278
0.00033334
0.000329553
0.000324763
0.000318788
0.000311414
0.000302391
0.000291432
0.000278216
0.000262396
0.000243604
0.000221471
0.00019565
0.000165851
0.000131887
9.373e-05
5.15709e-05
5.88645e-06
-4.25074e-05
-9.24231e-05
-0.000142307
-0.000190301
-0.000234365
-0.000272468
-0.000302817
-0.000324099
-0.000335663
-0.00033761
-0.000330761
-0.000316501
-0.000296556
-0.000272741
-0.000246766
-0.000220093
-0.000193878
-0.000168961
-0.000145898
-0.000125003
-0.000106401
-9.00797e-05
-7.59324e-05
-6.37941e-05
-5.347e-05
-4.47545e-05
-3.7444e-05
-3.13449e-05
-2.62787e-05
-2.2085e-05
-1.86229e-05
-1.5771e-05
-1.34255e-05
-1.1498e-05
-9.91323e-06
-8.60706e-06
-7.5253e-06
-6.6229e-06
-5.86331e-06
-5.21739e-06
-4.66233e-06
-4.18004e-06
-3.75598e-06
-3.37799e-06
-3.03582e-06
-2.72086e-06
-2.42628e-06
-2.14714e-06
-1.88049e-06
-1.62523e-06
-1.38185e-06
-1.15194e-06
-9.37797e-07
-7.41939e-07
-5.6674e-07
-4.13683e-07
-2.80332e-07
-1.85633e-07
0.000341926
0.000341552
0.0003406
0.00033907
0.000336935
0.000334102
0.000330444
0.000325811
0.000320022
0.000312863
0.000304084
0.000293394
0.000280468
0.000264947
0.000246448
0.000224579
0.000198963
0.000169274
0.000135282
9.69105e-05
5.43073e-05
7.91362e-06
-4.14702e-05
-9.26409e-05
-0.000143989
-0.000193554
-0.000239154
-0.000278592
-0.000309913
-0.000331677
-0.000343175
-0.000344535
-0.000336681
-0.000321154
-0.000299845
-0.000274718
-0.000247584
-0.000219966
-0.000193035
-0.000167621
-0.000144253
-0.000123209
-0.000104577
-8.83122e-05
-7.42772e-05
-6.22844e-05
-5.21214e-05
-4.35702e-05
-3.64184e-05
-3.04669e-05
-2.55338e-05
-2.14573e-05
-1.80969e-05
-1.53321e-05
-1.30608e-05
-1.11963e-05
-9.66444e-06
-8.40221e-06
-7.35623e-06
-6.48227e-06
-5.74484e-06
-5.11601e-06
-4.57424e-06
-4.10266e-06
-3.68769e-06
-3.3179e-06
-2.98345e-06
-2.67598e-06
-2.38874e-06
-2.11682e-06
-1.85721e-06
-1.60871e-06
-1.37167e-06
-1.14748e-06
-9.38183e-07
-7.45997e-07
-5.72954e-07
-4.20279e-07
-2.85543e-07
-1.87879e-07
0.000342486
0.000342129
0.000341222
0.000339765
0.000337727
0.00033502
0.00033152
0.000327077
0.000321513
0.000314616
0.000306133
0.000295772
0.0002832
0.000268046
0.000249908
0.000228367
0.000203011
0.000173469
0.000139456
0.000100838
5.77068e-05
1.04574e-05
-4.01314e-05
-9.28404e-05
-0.000145993
-0.000197504
-0.000245014
-0.000286118
-0.000318652
-0.000341016
-0.000352427
-0.000353046
-0.000343933
-0.000326823
-0.000303821
-0.000277074
-0.00024852
-0.000219749
-0.000191953
-0.000165944
-0.000142215
-0.000121
-0.000102342
-8.61518e-05
-7.22589e-05
-6.04469e-05
-5.04824e-05
-4.21325e-05
-3.51747e-05
-2.94031e-05
-2.46321e-05
-2.06982e-05
-1.74612e-05
-1.4802e-05
-1.26206e-05
-1.08321e-05
-9.36432e-06
-8.1551e-06
-7.15216e-06
-6.31235e-06
-5.60147e-06
-4.99312e-06
-4.46733e-06
-4.00867e-06
-3.60471e-06
-3.2448e-06
-2.91958e-06
-2.62093e-06
-2.3422e-06
-2.07848e-06
-1.82675e-06
-1.58575e-06
-1.3557e-06
-1.13782e-06
-9.33887e-07
-7.45826e-07
-5.75329e-07
-4.23381e-07
-2.87646e-07
-1.87671e-07
0.000343128
0.000342792
0.000341937
0.000340562
0.000338637
0.000336076
0.000332756
0.000328532
0.000323228
0.000316633
0.000308494
0.000298515
0.000286355
0.000271631
0.000253919
0.000232769
0.000207729
0.000178372
0.000144354
0.000105471
6.17444e-05
1.35136e-05
-3.84725e-05
-9.29798e-05
-0.000148256
-0.000202071
-0.000251854
-0.000294945
-0.00032893
-0.000352009
-0.000363309
-0.000363034
-0.000352407
-0.000333406
-0.000308394
-0.000279736
-0.00024952
-0.000219412
-0.00019062
-0.000163934
-0.000139802
-0.000118403
-9.97259e-05
-8.36337e-05
-6.99131e-05
-5.8316e-05
-4.85852e-05
-4.04709e-05
-3.37393e-05
-2.81769e-05
-2.35939e-05
-1.98252e-05
-1.67307e-05
-1.41936e-05
-1.21161e-05
-1.04156e-05
-9.02178e-06
-7.87384e-06
-6.92062e-06
-6.12027e-06
-5.44012e-06
-4.85558e-06
-4.34852e-06
-3.90514e-06
-3.51429e-06
-3.16615e-06
-2.85183e-06
-2.5634e-06
-2.29433e-06
-2.03972e-06
-1.79658e-06
-1.56362e-06
-1.34098e-06
-1.12972e-06
-9.31427e-07
-7.47719e-07
-5.79985e-07
-4.28988e-07
-2.92417e-07
-1.89925e-07
0.000343838
0.000343525
0.000342728
0.000341444
0.000339644
0.000337243
0.000334124
0.000330144
0.000325129
0.00031887
0.000311115
0.000301564
0.000289869
0.000275631
0.000258403
0.000237704
0.000213033
0.000183906
0.000149907
0.000110752
6.63822e-05
1.70691e-05
-3.64782e-05
-9.30142e-05
-0.000150705
-0.000207157
-0.000259557
-0.000304945
-0.00034061
-0.000364517
-0.000375681
-0.000374357
-0.000361966
-0.000340777
-0.000313456
-0.00028262
-0.000250527
-0.000218922
-0.000189028
-0.000161603
-0.000137039
-0.000115453
-9.67715e-05
-8.08013e-05
-6.72831e-05
-5.5933e-05
-4.64678e-05
-3.86196e-05
-3.21422e-05
-2.68142e-05
-2.24411e-05
-1.88562e-05
-1.59203e-05
-1.35185e-05
-1.15562e-05
-9.95332e-06
-8.64141e-06
-7.56126e-06
-6.66293e-06
-5.906e-06
-5.25962e-06
-4.70126e-06
-4.21487e-06
-3.78847e-06
-3.41223e-06
-3.07719e-06
-2.77488e-06
-2.49758e-06
-2.23881e-06
-1.99374e-06
-1.75943e-06
-1.53462e-06
-1.31945e-06
-1.11489e-06
-9.22309e-07
-7.43107e-07
-5.78407e-07
-4.2881e-07
-2.9215e-07
-1.88464e-07
0.000344599
0.00034431
0.000343575
0.000342389
0.000340723
0.000338495
0.000335592
0.000331874
0.000327172
0.000321277
0.000313938
0.000304853
0.000293665
0.000279961
0.000263269
0.000243073
0.000218824
0.000189972
0.000156023
0.000116604
7.15647e-05
2.10961e-05
-3.41423e-05
-9.29001e-05
-0.00015326
-0.000212648
-0.000267979
-0.000315955
-0.000353517
-0.000378354
-0.000389355
-0.000386834
-0.000372442
-0.000348787
-0.000318883
-0.000285635
-0.000251483
-0.000218254
-0.000187177
-0.00015897
-0.000133962
-0.000112196
-9.35299e-05
-7.77079e-05
-6.4421e-05
-5.33472e-05
-4.41758e-05
-3.66199e-05
-3.04204e-05
-2.53475e-05
-2.12023e-05
-1.78164e-05
-1.50517e-05
-1.27961e-05
-1.09582e-05
-9.46082e-06
-8.23763e-06
-7.23086e-06
-6.3919e-06
-5.68192e-06
-5.07208e-06
-4.54216e-06
-4.07842e-06
-3.67077e-06
-3.31077e-06
-2.99025e-06
-2.70111e-06
-2.43576e-06
-2.18778e-06
-1.95242e-06
-1.72686e-06
-1.50998e-06
-1.30197e-06
-1.10374e-06
-9.16552e-07
-7.416e-07
-5.79793e-07
-4.31603e-07
-2.94931e-07
-1.89882e-07
0.000345393
0.00034513
0.000344459
0.000343376
0.00034185
0.000339803
0.000337126
0.000333684
0.00032931
0.000323799
0.0003169
0.000308308
0.00029766
0.000284526
0.000268413
0.000248766
0.000224985
0.000196453
0.00016259
0.000122928
7.72152e-05
2.55488e-05
-3.14719e-05
-9.25998e-05
-0.000155834
-0.000218412
-0.000276949
-0.000327771
-0.000367426
-0.000393289
-0.0004041
-0.00040024
-0.00038363
-0.00035726
-0.00032454
-0.000288685
-0.000252332
-0.000217387
-0.000185078
-0.000156071
-0.000130621
-0.000108691
-9.00634e-05
-7.44158e-05
-6.13866e-05
-5.06139e-05
-4.17588e-05
-3.45151e-05
-2.86109e-05
-2.38082e-05
-1.9903e-05
-1.6726e-05
-1.41406e-05
-1.2038e-05
-1.03301e-05
-8.94314e-06
-7.81268e-06
-6.88247e-06
-6.10523e-06
-5.44387e-06
-4.87178e-06
-4.37131e-06
-3.93117e-06
-3.54327e-06
-3.2005e-06
-2.89538e-06
-2.62011e-06
-2.36712e-06
-2.13005e-06
-1.9043e-06
-1.68723e-06
-1.47794e-06
-1.27676e-06
-1.08465e-06
-9.02786e-07
-7.32196e-07
-5.73617e-07
-4.27438e-07
-2.91742e-07
-1.86998e-07
0.000346201
0.000345964
0.000345359
0.00034438
0.000342998
0.000341136
0.00033869
0.000335529
0.000331492
0.000326375
0.000319929
0.000311848
0.00030176
0.000289223
0.000273719
0.000254656
0.000231382
0.000203211
0.000169475
0.000129603
8.32324e-05
3.03584e-05
-2.84923e-05
-9.20855e-05
-0.000158342
-0.000224304
-0.000286268
-0.000340149
-0.000382063
-0.000409032
-0.000419627
-0.000414306
-0.00039529
-0.000366
-0.000330277
-0.000291675
-0.000253027
-0.000216317
-0.000182757
-0.000152955
-0.00012708
-0.00010501
-8.64464e-05
-7.09983e-05
-5.82493e-05
-4.77971e-05
-3.92749e-05
-3.23576e-05
-2.67604e-05
-2.22372e-05
-1.85796e-05
-1.56174e-05
-1.3216e-05
-1.12702e-05
-9.69598e-06
-8.42258e-06
-7.38759e-06
-6.53609e-06
-5.82213e-06
-5.21044e-06
-4.67691e-06
-4.20663e-06
-3.79091e-06
-3.42367e-06
-3.09904e-06
-2.81011e-06
-2.54917e-06
-2.30864e-06
-2.08216e-06
-1.86532e-06
-1.65582e-06
-1.45309e-06
-1.25773e-06
-1.07082e-06
-8.9353e-07
-7.26751e-07
-5.71075e-07
-4.26804e-07
-2.92081e-07
-1.87353e-07
0.000347006
0.000346794
0.000346255
0.00034538
0.00034414
0.000342462
0.000340247
0.000337367
0.000333666
0.000328945
0.000322955
0.000315388
0.000305868
0.000293939
0.00027906
0.000260604
0.000237866
0.000210091
0.000176522
0.00013648
8.94884e-05
3.54302e-05
-2.52511e-05
-9.1345e-05
-0.000160701
-0.000230166
-0.000295707
-0.000352803
-0.000397099
-0.000425233
-0.00043559
-0.000428712
-0.000407149
-0.00037479
-0.000335942
-0.000294513
-0.000253533
-0.000215052
-0.000180258
-0.000149685
-0.000123416
-0.000101236
-8.27619e-05
-6.75342e-05
-5.50813e-05
-4.49612e-05
-3.67802e-05
-3.01948e-05
-2.49081e-05
-2.06661e-05
-1.72565e-05
-1.45085e-05
-1.22901e-05
-1.05003e-05
-9.05912e-06
-7.89886e-06
-6.95893e-06
-6.18552e-06
-5.53398e-06
-4.97101e-06
-4.47516e-06
-4.03452e-06
-3.64309e-06
-3.29678e-06
-2.99081e-06
-2.71859e-06
-2.47235e-06
-2.24432e-06
-2.02816e-06
-1.8197e-06
-1.61705e-06
-1.42014e-06
-1.22996e-06
-1.04783e-06
-8.74952e-07
-7.12132e-07
-5.59824e-07
-4.1825e-07
-2.85688e-07
-1.82865e-07
0.000347787
0.000347601
0.000347125
0.000346351
0.000345249
0.00034375
0.000341759
0.000339153
0.000335781
0.000331446
0.000325903
0.000318842
0.000309883
0.000298558
0.000284304
0.00026646
0.000244273
0.000216919
0.000183552
0.000143388
9.58284e-05
4.06415e-05
-2.18216e-05
-9.0385e-05
-0.000162838
-0.000235837
-0.000305016
-0.000365403
-0.00041215
-0.000441483
-0.000451587
-0.000443091
-0.000418898
-0.000383397
-0.000341381
-0.000297118
-0.00025383
-0.000213621
-0.000177641
-0.000146346
-0.000119723
-9.74657e-05
-7.9106e-05
-6.41145e-05
-5.19667e-05
-4.21827e-05
-3.43433e-05
-2.80881e-05
-2.31088e-05
-1.91439e-05
-1.59775e-05
-1.34389e-05
-1.13992e-05
-9.76174e-06
-8.45092e-06
-7.40176e-06
-6.55516e-06
-5.8582e-06
-5.26738e-06
-4.75144e-06
-4.29182e-06
-3.87976e-06
-3.51206e-06
-3.18653e-06
-2.89929e-06
-2.64387e-06
-2.41217e-06
-2.19612e-06
-1.98933e-06
-1.7879e-06
-1.59052e-06
-1.39773e-06
-1.21109e-06
-1.03227e-06
-8.62583e-07
-7.02803e-07
-5.53256e-07
-4.14054e-07
-2.83455e-07
-1.81989e-07
0.000348527
0.000348364
0.000347948
0.000347269
0.000346298
0.000344968
0.000343189
0.000340844
0.000337783
0.000333816
0.000328698
0.000322122
0.000313702
0.000302959
0.000289313
0.000272071
0.000250433
0.000223511
0.000190374
0.000150133
0.000102073
4.58432e-05
-1.83035e-05
-8.9235e-05
-0.000164692
-0.000241153
-0.000313927
-0.000377587
-0.000426785
-0.000457318
-0.000467162
-0.000457034
-0.000430205
-0.000391579
-0.000346444
-0.000299422
-0.000253918
-0.00021207
-0.000174985
-0.000143033
-0.000116106
-9.3803e-05
-7.55757e-05
-6.08273e-05
-4.89829e-05
-3.95278e-05
-3.20195e-05
-2.60823e-05
-2.13975e-05
-1.76968e-05
-1.47609e-05
-1.24199e-05
-1.05484e-05
-9.0546e-06
-7.86694e-06
-6.92305e-06
-6.1649e-06
-5.54005e-06
-5.00603e-06
-4.53369e-06
-4.10745e-06
-3.72188e-06
-3.37658e-06
-3.0712e-06
-2.80254e-06
-2.56399e-06
-2.34688e-06
-2.14266e-06
-1.94481e-06
-1.74976e-06
-1.55681e-06
-1.36727e-06
-1.1834e-06
-1.00731e-06
-8.40541e-07
-6.83865e-07
-5.37496e-07
-4.01435e-07
-2.73991e-07
-1.75882e-07
0.000349208
0.000349067
0.000348706
0.000348114
0.000347262
0.000346088
0.000344504
0.000342397
0.000339623
0.000335994
0.00033127
0.000325143
0.000317224
0.000307026
0.000293951
0.000277279
0.000256169
0.000229673
0.000196781
0.000156508
0.000108024
5.08628e-05
-1.48214e-05
-8.79477e-05
-0.000166221
-0.000245959
-0.000322163
-0.000388969
-0.000440534
-0.00047223
-0.000481817
-0.000470102
-0.000440722
-0.000399094
-0.000350993
-0.000301378
-0.000253815
-0.000210467
-0.000172388
-0.00013986
-0.000112682
-9.0364e-05
-7.2281e-05
-5.7774e-05
-4.62221e-05
-3.70793e-05
-2.98829e-05
-2.42438e-05
-1.98339e-05
-1.63785e-05
-1.36558e-05
-1.14968e-05
-9.78005e-06
-8.41864e-06
-7.34506e-06
-6.49906e-06
-5.82319e-06
-5.26514e-06
-4.78325e-06
-4.3504e-06
-3.95409e-06
-3.59224e-06
-3.26727e-06
-2.98053e-06
-2.72934e-06
-2.50669e-06
-2.30317e-06
-2.1096e-06
-1.91924e-06
-1.72884e-06
-1.53839e-06
-1.3501e-06
-1.167e-06
-9.91793e-07
-8.26321e-07
-6.71409e-07
-5.27193e-07
-3.9355e-07
-2.68733e-07
-1.7321e-07
0.000349815
0.000349693
0.00034938
0.000348866
0.000348119
0.000347082
0.00034567
0.000343774
0.000341254
0.000337926
0.000333553
0.000327826
0.000320354
0.000310645
0.000298086
0.000281933
0.00026131
0.000235215
0.00020257
0.000162299
0.000113472
5.55125e-05
-1.15196e-05
-8.65973e-05
-0.000167402
-0.000250113
-0.000329453
-0.000399155
-0.00045291
-0.000485684
-0.00049503
-0.000481839
-0.000450097
-0.00040571
-0.000354906
-0.000302954
-0.000253557
-0.000208892
-0.000169953
-0.000136941
-0.000109565
-8.72563e-05
-6.9319e-05
-5.50389e-05
-4.37554e-05
-3.48955e-05
-2.79796e-05
-2.26074e-05
-1.84426e-05
-1.52048e-05
-1.26701e-05
-1.06709e-05
-9.08971e-06
-7.84462e-06
-6.87179e-06
-6.11269e-06
-5.50999e-06
-5.01115e-06
-4.57503e-06
-4.17643e-06
-3.80585e-06
-3.46448e-06
-3.15745e-06
-2.88767e-06
-2.65279e-06
-2.44526e-06
-2.25475e-06
-2.07132e-06
-1.88795e-06
-1.70166e-06
-1.51316e-06
-1.32555e-06
-1.14274e-06
-9.68083e-07
-8.03774e-07
-6.50751e-07
-5.09093e-07
-3.7857e-07
-2.57437e-07
-1.66273e-07
0.000350334
0.000350228
0.000349956
0.000349506
0.000348849
0.000347926
0.000346659
0.000344942
0.000342636
0.000339562
0.000335484
0.000330097
0.000323006
0.000313714
0.000301597
0.000285893
0.000265694
0.000239955
0.00020754
0.000167298
0.000118208
5.96001e-05
-8.55194e-06
-8.52733e-05
-0.000168232
-0.000253492
-0.000335542
-0.000407762
-0.00046343
-0.00049715
-0.000506286
-0.0004918
-0.000457995
-0.000411211
-0.000358082
-0.000304139
-0.000253199
-0.000207439
-0.000167797
-0.000134399
-0.000106879
-8.45964e-05
-6.6797e-05
-5.27198e-05
-4.16708e-05
-3.30555e-05
-2.63808e-05
-2.12373e-05
-1.72818e-05
-1.42292e-05
-1.18537e-05
-9.98919e-06
-8.52235e-06
-7.37569e-06
-6.48865e-06
-5.80396e-06
-5.26405e-06
-4.81578e-06
-4.41833e-06
-4.04815e-06
-3.69849e-06
-3.3736e-06
-3.08111e-06
-2.82533e-06
-2.60412e-06
-2.40931e-06
-2.22958e-06
-2.05419e-06
-1.8758e-06
-1.69168e-06
-1.50322e-06
-1.31442e-06
-1.13006e-06
-9.54192e-07
-7.89413e-07
-6.36819e-07
-4.96463e-07
-3.68026e-07
-2.49731e-07
-1.61948e-07
0.000350753
0.000350659
0.000350419
0.00035002
0.000349433
0.000348601
0.000347448
0.00034587
0.000343733
0.000340859
0.000337015
0.000331895
0.000325106
0.000316145
0.00030438
0.000289035
0.000269179
0.000243733
0.000211515
0.000171314
0.000122039
6.29432e-05
-6.07025e-06
-8.40717e-05
-0.000168723
-0.000256002
-0.000340211
-0.000414447
-0.000471654
-0.000506136
-0.000515102
-0.000499573
-0.000464112
-0.000415415
-0.000360442
-0.000304936
-0.000252796
-0.000206195
-0.000166022
-0.00013234
-0.000104723
-8.24743e-05
-6.47929e-05
-5.08814e-05
-4.00203e-05
-3.15993e-05
-2.51153e-05
-2.01522e-05
-1.63612e-05
-1.34537e-05
-1.12022e-05
-9.44229e-06
-8.06414e-06
-6.9942e-06
-6.17462e-06
-5.54896e-06
-5.05908e-06
-4.6511e-06
-4.28425e-06
-3.9363e-06
-3.60284e-06
-3.29076e-06
-3.00983e-06
-2.76553e-06
-2.55585e-06
-2.37194e-06
-2.20157e-06
-2.0332e-06
-1.85916e-06
-1.67689e-06
-1.48839e-06
-1.29849e-06
-1.11277e-06
-9.35937e-07
-7.70998e-07
-6.19218e-07
-4.80649e-07
-3.54885e-07
-2.40101e-07
-1.56527e-07
0.000351063
0.000350978
0.00035076
0.000350397
0.000349858
0.00034909
0.000348017
0.000346537
0.000344518
0.000341785
0.000338104
0.000333171
0.000326594
0.000317866
0.00030635
0.00029126
0.000271649
0.000246416
0.000214346
0.000174188
0.000124801
6.53849e-05
-4.20837e-06
-8.30822e-05
-0.000168896
-0.000257571
-0.00034328
-0.000418924
-0.000477208
-0.000512226
-0.000521075
-0.000504817
-0.0004682
-0.000418176
-0.000361933
-0.00030536
-0.00025241
-0.000205247
-0.000164725
-0.000130865
-0.000103194
-8.09804e-05
-6.33894e-05
-4.95988e-05
-3.88724e-05
-3.05894e-05
-2.42403e-05
-1.94045e-05
-1.57297e-05
-1.29241e-05
-1.07595e-05
-9.07261e-06
-7.75648e-06
-6.74055e-06
-5.96891e-06
-5.38555e-06
-4.93167e-06
-4.55256e-06
-4.20732e-06
-3.87464e-06
-3.55191e-06
-3.24805e-06
-2.97451e-06
-2.73768e-06
-2.53559e-06
-2.35886e-06
-2.19445e-06
-2.03016e-06
-1.858e-06
-1.67557e-06
-1.48536e-06
-1.29289e-06
-1.10444e-06
-9.25288e-07
-7.5883e-07
-6.06506e-07
-4.68387e-07
-3.44017e-07
-2.31589e-07
-1.51209e-07
0.000351257
0.000351177
0.000350972
0.000350628
0.000350116
0.000349383
0.000348353
0.000346926
0.000344972
0.000342314
0.000338722
0.000333892
0.000327429
0.000318828
0.000307448
0.000292498
0.000273022
0.00024791
0.000215928
0.000175805
0.000126375
6.68087e-05
-3.068e-06
-8.23763e-05
-0.000168776
-0.000258158
-0.000344631
-0.000420993
-0.000479829
-0.000515122
-0.000523912
-0.000507284
-0.000470083
-0.000419394
-0.000362522
-0.000305425
-0.000252083
-0.000204654
-0.000163972
-0.000130034
-0.000102349
-8.01628e-05
-6.26253e-05
-4.89021e-05
-3.82486e-05
-3.00393e-05
-2.37621e-05
-1.89942e-05
-1.53811e-05
-1.26296e-05
-1.05109e-05
-8.8626e-06
-7.57944e-06
-6.59274e-06
-5.8477e-06
-5.28837e-06
-4.85528e-06
-4.49298e-06
-4.1603e-06
-3.83642e-06
-3.51979e-06
-3.22062e-06
-2.95144e-06
-2.7192e-06
-2.52193e-06
-2.34983e-06
-2.18928e-06
-2.0276e-06
-1.85657e-06
-1.67384e-06
-1.48228e-06
-1.28788e-06
-1.09746e-06
-9.16752e-07
-7.49441e-07
-5.97124e-07
-4.5989e-07
-3.37211e-07
-2.27147e-07
-1.49315e-07
0.000351332
0.000351253
0.00035105
0.000350709
0.000350201
0.000349473
0.000348449
0.00034703
0.000345084
0.000342436
0.000338855
0.000334038
0.00032759
0.000319004
0.000307642
0.00029271
0.000273255
0.000248164
0.000216205
0.000176104
0.000126696
6.71512e-05
-2.70517e-06
-8.19947e-05
-0.000168377
-0.000257744
-0.000344204
-0.000420553
-0.00047938
-0.000514669
-0.000523462
-0.000506849
-0.000469676
-0.000419024
-0.000362197
-0.000305146
-0.000251846
-0.000204454
-0.000163804
-0.000129893
-0.000102229
-8.00615e-05
-6.25387e-05
-4.88273e-05
-3.81834e-05
-2.99825e-05
-2.3713e-05
-1.89524e-05
-1.5346e-05
-1.26003e-05
-1.04863e-05
-8.84204e-06
-7.56271e-06
-6.58015e-06
-5.83972e-06
-5.28524e-06
-4.85671e-06
-4.49812e-06
-4.16796e-06
-3.84542e-06
-3.52926e-06
-3.23011e-06
-2.9609e-06
-2.72877e-06
-2.53175e-06
-2.35981e-06
-2.19904e-06
-2.03653e-06
-1.86391e-06
-1.67891e-06
-1.48457e-06
-1.28718e-06
-1.09388e-06
-9.10688e-07
-7.41508e-07
-5.88052e-07
-4.50439e-07
-3.28122e-07
-2.19214e-07
-1.4338e-07
0.000351288
0.000351206
0.000350994
0.000350639
0.000350113
0.000349359
0.000348304
0.000346847
0.000344854
0.00034215
0.000338503
0.000333609
0.000327074
0.000318394
0.00030693
0.000291896
0.000272345
0.000247176
0.000215172
0.000175081
0.000125761
6.64084e-05
-3.1243e-06
-8.19423e-05
-0.000167706
-0.000256335
-0.000342004
-0.000417612
-0.00047587
-0.000510875
-0.000519736
-0.000503522
-0.000466985
-0.000417073
-0.000360962
-0.000304523
-0.000251699
-0.000204645
-0.000164217
-0.000130434
-0.000102827
-8.06669e-05
-6.31184e-05
-4.93617e-05
-3.86628e-05
-3.04033e-05
-2.4076e-05
-1.92609e-05
-1.56051e-05
-1.2816e-05
-1.0665e-05
-8.98983e-06
-7.68499e-06
-6.68142e-06
-5.92371e-06
-5.35516e-06
-4.91543e-06
-4.54817e-06
-4.21149e-06
-3.88408e-06
-3.56413e-06
-3.26184e-06
-2.98977e-06
-2.75488e-06
-2.55511e-06
-2.38046e-06
-2.21703e-06
-2.05191e-06
-1.87676e-06
-1.68929e-06
-1.49259e-06
-1.29302e-06
-1.0978e-06
-9.13064e-07
-7.42817e-07
-5.88835e-07
-4.51241e-07
-3.29411e-07
-2.21214e-07
-1.45499e-07
0.000351127
0.000351038
0.000350807
0.000350422
0.000349854
0.000349048
0.000347925
0.000346384
0.00034429
0.000341465
0.000337677
0.00033262
0.000325902
0.000317019
0.00030534
0.000290088
0.000270331
0.00024499
0.00021288
0.00017279
0.000123625
6.46348e-05
-4.27865e-06
-8.21881e-05
-0.000166756
-0.000253961
-0.000338104
-0.000412283
-0.000469448
-0.000503913
-0.000512902
-0.000497447
-0.000462117
-0.000413603
-0.000358843
-0.000303555
-0.000251621
-0.0002052
-0.00016518
-0.000131627
-0.000104117
-8.19574e-05
-6.43478e-05
-5.04938e-05
-3.96796e-05
-3.1299e-05
-2.48521e-05
-1.99239e-05
-1.61651e-05
-1.32856e-05
-1.10575e-05
-9.31767e-06
-7.95869e-06
-6.90931e-06
-6.11252e-06
-5.51085e-06
-5.0438e-06
-4.65492e-06
-4.30186e-06
-3.96232e-06
-3.63317e-06
-3.32323e-06
-3.04403e-06
-2.80194e-06
-2.59484e-06
-2.41292e-06
-2.24264e-06
-2.07137e-06
-1.89092e-06
-1.69901e-06
-1.4986e-06
-1.29592e-06
-1.09809e-06
-9.1116e-07
-7.39145e-07
-5.83833e-07
-4.45349e-07
-3.23043e-07
-2.14831e-07
-1.39711e-07
0.000350855
0.000350754
0.000350495
0.000350065
0.000349435
0.000348548
0.000347323
0.000345656
0.000343409
0.000340404
0.000336404
0.000331104
0.000324111
0.000314927
0.000302928
0.000287352
0.00026729
0.000241696
0.00020943
0.00016934
0.000120401
6.19389e-05
-6.07551e-06
-8.26704e-05
-0.000165515
-0.000250674
-0.000332636
-0.000404781
-0.000460396
-0.000494097
-0.000503268
-0.000488886
-0.000455261
-0.000408723
-0.000355879
-0.000302231
-0.000251569
-0.000206054
-0.000166623
-0.000133401
-0.000106028
-8.38682e-05
-6.61681e-05
-5.21708e-05
-4.11869e-05
-3.26275e-05
-2.60037e-05
-2.0908e-05
-1.69965e-05
-1.39826e-05
-1.16398e-05
-9.80358e-06
-8.36367e-06
-7.24551e-06
-6.38975e-06
-5.73788e-06
-5.22936e-06
-4.80781e-06
-4.43028e-06
-4.07303e-06
-3.73084e-06
-3.41038e-06
-3.12147e-06
-2.86956e-06
-2.65238e-06
-2.46052e-06
-2.28105e-06
-2.10186e-06
-1.91505e-06
-1.7183e-06
-1.51434e-06
-1.30909e-06
-1.10936e-06
-9.21002e-07
-7.47926e-07
-5.91878e-07
-4.52948e-07
-3.30373e-07
-2.21725e-07
-1.44923e-07
0.000350479
0.000350364
0.000350068
0.000349579
0.000348867
0.000347873
0.000346515
0.000344683
0.000342239
0.000338998
0.000334722
0.000329106
0.000321759
0.000312186
0.000299776
0.000283785
0.000263334
0.000237421
0.000204964
0.000164884
0.000116246
5.84703e-05
-8.38881e-06
-8.33078e-05
-0.00016397
-0.000246555
-0.000325787
-0.000395401
-0.000449096
-0.000481855
-0.000491252
-0.000478194
-0.000446676
-0.00040259
-0.000352136
-0.000300546
-0.000251492
-0.000207133
-0.000168457
-0.000135667
-0.000108478
-8.63247e-05
-6.85147e-05
-5.43381e-05
-4.31394e-05
-3.43523e-05
-2.75021e-05
-2.21913e-05
-1.8083e-05
-1.48954e-05
-1.24037e-05
-1.04418e-05
-8.89589e-06
-7.68728e-06
-6.75367e-06
-6.0353e-06
-5.47157e-06
-5.0062e-06
-4.59555e-06
-4.21404e-06
-3.85376e-06
-3.51858e-06
-3.21607e-06
-2.95049e-06
-2.71934e-06
-2.51374e-06
-2.32158e-06
-2.13147e-06
-1.93586e-06
-1.73242e-06
-1.52355e-06
-1.31473e-06
-1.11232e-06
-9.21887e-07
-7.4714e-07
-5.89761e-07
-4.49796e-07
-3.26423e-07
-2.17205e-07
-1.40139e-07
0.000350011
0.000349878
0.000349537
0.000348976
0.000348166
0.000347044
0.000345524
0.000343495
0.000340811
0.000337287
0.000332682
0.000326688
0.000318916
0.000308882
0.000295985
0.000279506
0.000258602
0.000232322
0.000199654
0.000159607
0.000111348
5.44051e-05
-1.10739e-05
-8.40118e-05
-0.000162117
-0.000241708
-0.000317788
-0.000384497
-0.000436001
-0.000467689
-0.000477344
-0.000465791
-0.000436673
-0.000395394
-0.000347697
-0.0002985
-0.000251335
-0.000208345
-0.000170576
-0.000138313
-0.000111357
-8.92255e-05
-7.12961e-05
-5.69146e-05
-4.54662e-05
-3.64118e-05
-2.92946e-05
-2.37291e-05
-1.9387e-05
-1.59923e-05
-1.33222e-05
-1.12094e-05
-9.53587e-06
-8.21842e-06
-7.19129e-06
-6.39318e-06
-5.76331e-06
-5.24542e-06
-4.79504e-06
-4.38442e-06
-4.00254e-06
-3.64998e-06
-3.33169e-06
-3.05043e-06
-2.80341e-06
-2.5823e-06
-2.37593e-06
-2.17369e-06
-1.96846e-06
-1.75789e-06
-1.544e-06
-1.3317e-06
-1.12688e-06
-9.3468e-07
-7.58618e-07
-6.00269e-07
-4.59602e-07
-3.35649e-07
-2.25573e-07
-1.46245e-07
0.000349464
0.00034931
0.000348917
0.000348274
0.000347351
0.000346083
0.000344379
0.000342123
0.000339167
0.000335321
0.00033034
0.000323918
0.000315669
0.000305115
0.000291674
0.000274653
0.000253251
0.000226577
0.000193695
0.000153714
0.000105911
4.99303e-05
-1.3982e-05
-8.46989e-05
-0.000159965
-0.000236262
-0.000308899
-0.000372457
-0.000421597
-0.000452134
-0.000462065
-0.000452126
-0.000425593
-0.000387354
-0.000342666
-0.000296108
-0.000251049
-0.000209604
-0.000172872
-0.000141223
-0.000114553
-9.24655e-05
-7.44176e-05
-5.98172e-05
-4.80957e-05
-3.87455e-05
-3.13308e-05
-2.54799e-05
-2.08748e-05
-1.72458e-05
-1.4373e-05
-1.20878e-05
-1.0268e-05
-8.82572e-06
-7.6914e-06
-6.80187e-06
-6.09597e-06
-5.51731e-06
-5.02041e-06
-4.57519e-06
-4.1673e-06
-3.79374e-06
-3.45658e-06
-3.15689e-06
-2.89146e-06
-2.65251e-06
-2.42975e-06
-2.21343e-06
-1.99688e-06
-1.77769e-06
-1.5575e-06
-1.34065e-06
-1.13247e-06
-9.37713e-07
-7.59654e-07
-5.99758e-07
-4.57921e-07
-3.33065e-07
-2.22274e-07
-1.42422e-07
0.000348851
0.000348675
0.000348226
0.000347492
0.000346445
0.000345016
0.000343109
0.000340605
0.000337351
0.000333152
0.000327763
0.000320876
0.000312109
0.000300995
0.000286971
0.000269375
0.000247452
0.000220374
0.000187291
0.000147415
0.000100141
4.523e-05
-1.69733e-05
-8.52994e-05
-0.000157543
-0.000230362
-0.000299397
-0.00035968
-0.000406376
-0.000435727
-0.000445939
-0.000437656
-0.000413787
-0.000378704
-0.000337169
-0.000293404
-0.0002506
-0.000210831
-0.000175241
-0.000144283
-0.000117947
-9.59317e-05
-7.77752e-05
-6.29527e-05
-5.09458e-05
-4.12822e-05
-3.35496e-05
-2.73923e-05
-2.25033e-05
-1.86203e-05
-1.55265e-05
-1.30526e-05
-1.10725e-05
-9.49347e-06
-8.24201e-06
-7.2528e-06
-6.46397e-06
-5.81878e-06
-5.27062e-06
-4.78701e-06
-4.35017e-06
-3.95346e-06
-3.59591e-06
-3.27673e-06
-2.99215e-06
-2.73477e-06
-2.49515e-06
-2.26433e-06
-2.03606e-06
-1.80792e-06
-1.58115e-06
-1.35955e-06
-1.1479e-06
-9.50569e-07
-7.70591e-07
-6.09313e-07
-4.6652e-07
-3.40946e-07
-2.29257e-07
-1.47383e-07
0.000348191
0.000347991
0.000347481
0.000346651
0.000345472
0.000343871
0.000341749
0.000338982
0.000335412
0.000330841
0.000325021
0.000317645
0.000308337
0.00029664
0.000282013
0.000263828
0.000241377
0.000213903
0.000180643
0.000140915
9.42328e-05
4.0474e-05
-1.99258e-05
-8.57631e-05
-0.000154894
-0.000224169
-0.000289561
-0.000346554
-0.000390808
-0.000418976
-0.000429461
-0.000422819
-0.000401603
-0.000369686
-0.000331343
-0.000290439
-0.000249971
-0.000211962
-0.000177588
-0.000147382
-0.000121427
-9.95143e-05
-8.12664e-05
-6.6228e-05
-5.39341e-05
-4.39503e-05
-3.58897e-05
-2.94141e-05
-2.42287e-05
-2.00789e-05
-1.67518e-05
-1.40777e-05
-1.19272e-05
-1.02028e-05
-8.8269e-06
-7.73184e-06
-6.85469e-06
-6.13815e-06
-5.53441e-06
-5.00861e-06
-4.53965e-06
-4.11727e-06
-3.73741e-06
-3.39733e-06
-3.09253e-06
-2.81581e-06
-2.55845e-06