/*--------------------------------*- C++ -*----------------------------------*\
| =========                 |                                                 |
| \\      /  F ield         | OpenFOAM: The Open Source CFD Toolbox           |
|  \\    /   O peration     | Version:  2512                                  |
|   \\  /    A nd           | Website:  www.openfoam.com                      |
|    \\/     M anipulation  |                                                 |
\*---------------------------------------------------------------------------*/
FoamFile
{
    version     2.0;
    format      ascii;
    arch        "LSB;label=32;scalar=64";
    class       volScalarField;
    location    "200";
    object      p;
}
// * * * * * * * * * * * * * * * * * * * * * * * * * * * * * * * * * * * * * //

dimensions      [0 2 -2 0 0 0 0];

internalField   nonuniform List<scalar> 
335663
(
2.784e-05
2.78132e-05
2.7743e-05
2.76302e-05
2.74731e-05
2.72653e-05
2.69983e-05
2.66617e-05
2.62432e-05
2.57281e-05
2.50995e-05
2.4338e-05
2.34222e-05
2.2329e-05
2.10344e-05
1.95146e-05
1.77478e-05
1.57166e-05
1.34103e-05
1.08289e-05
7.98614e-06
4.91339e-06
1.66223e-06
-1.69407e-06
-5.06153e-06
-8.32936e-06
-1.13772e-05
-1.40857e-05
-1.63484e-05
-1.80845e-05
-1.92485e-05
-1.98351e-05
-1.98783e-05
-1.94446e-05
-1.86226e-05
-1.75104e-05
-1.62049e-05
-1.47937e-05
-1.33504e-05
-1.19324e-05
-1.05814e-05
-9.32482e-06
-8.17839e-06
-7.14857e-06
-6.23502e-06
-5.4327e-06
-4.73362e-06
-4.12817e-06
-3.60611e-06
-3.15726e-06
-2.77197e-06
-2.44132e-06
-2.15734e-06
-1.91298e-06
-1.70211e-06
-1.51948e-06
-1.36061e-06
-1.22172e-06
-1.09964e-06
-9.91714e-07
-8.95734e-07
-8.09868e-07
-7.32594e-07
-6.6265e-07
-5.98989e-07
-5.40739e-07
-4.8717e-07
-4.37671e-07
-3.91722e-07
-3.4888e-07
-3.08759e-07
-2.71017e-07
-2.3535e-07
-2.01478e-07
-1.69138e-07
-1.38085e-07
-1.08078e-07
-7.89144e-08
-5.01357e-08
-2.4064e-08
2.78484e-05
2.78218e-05
2.77523e-05
2.76406e-05
2.74849e-05
2.7279e-05
2.70142e-05
2.66804e-05
2.62652e-05
2.5754e-05
2.51298e-05
2.43732e-05
2.34626e-05
2.23747e-05
2.10854e-05
1.95704e-05
1.78074e-05
1.57784e-05
1.3472e-05
1.08873e-05
8.03734e-06
4.95292e-06
1.68535e-06
-1.69184e-06
-5.08375e-06
-8.37796e-06
-1.14519e-05
-1.41833e-05
-1.64634e-05
-1.82093e-05
-1.93743e-05
-1.99536e-05
-1.99824e-05
-1.95298e-05
-1.86867e-05
-1.75534e-05
-1.62288e-05
-1.48015e-05
-1.33455e-05
-1.19183e-05
-1.0561e-05
-9.30081e-06
-8.15281e-06
-7.12296e-06
-6.21043e-06
-5.40982e-06
-4.71282e-06
-4.10961e-06
-3.58979e-06
-3.14308e-06
-2.75976e-06
-2.43089e-06
-2.14848e-06
-1.90549e-06
-1.6958e-06
-1.51417e-06
-1.35614e-06
-1.21796e-06
-1.09648e-06
-9.89043e-07
-8.93475e-07
-8.0795e-07
-7.30959e-07
-6.6125e-07
-5.97784e-07
-5.39697e-07
-4.86265e-07
-4.36882e-07
-3.91033e-07
-3.48277e-07
-3.08232e-07
-2.70558e-07
-2.34954e-07
-2.0114e-07
-1.68855e-07
-1.37855e-07
-1.07899e-07
-7.87817e-08
-5.00804e-08
-2.3913e-08
2.78648e-05
2.78387e-05
2.77705e-05
2.76608e-05
2.7508e-05
2.73057e-05
2.70456e-05
2.67173e-05
2.63086e-05
2.5805e-05
2.51894e-05
2.44423e-05
2.35419e-05
2.24647e-05
2.11859e-05
1.96805e-05
1.79252e-05
1.59007e-05
1.35942e-05
1.10032e-05
8.13927e-06
5.03195e-06
1.73206e-06
-1.68642e-06
-5.1268e-06
-8.47341e-06
-1.15991e-05
-1.43765e-05
-1.66914e-05
-1.84567e-05
-1.9624e-05
-2.01886e-05
-2.01891e-05
-1.96987e-05
-1.88135e-05
-1.76386e-05
-1.62761e-05
-1.48168e-05
-1.33357e-05
-1.18901e-05
-1.05205e-05
-9.25322e-06
-8.10216e-06
-7.07225e-06
-6.16176e-06
-5.36453e-06
-4.67166e-06
-4.07288e-06
-3.55749e-06
-3.11501e-06
-2.73559e-06
-2.41024e-06
-2.13094e-06
-1.89065e-06
-1.68329e-06
-1.50364e-06
-1.34729e-06
-1.21052e-06
-1.09021e-06
-9.83754e-07
-8.88999e-07
-8.0415e-07
-7.27719e-07
-6.58476e-07
-5.95397e-07
-5.37632e-07
-4.84472e-07
-4.35319e-07
-3.89666e-07
-3.47081e-07
-3.07186e-07
-2.69648e-07
-2.34167e-07
-2.00468e-07
-1.68292e-07
-1.37396e-07
-1.07541e-07
-7.85195e-08
-4.99172e-08
-2.38002e-08
2.7889e-05
2.78636e-05
2.77973e-05
2.76907e-05
2.75421e-05
2.73452e-05
2.70918e-05
2.67717e-05
2.63727e-05
2.58803e-05
2.52774e-05
2.45444e-05
2.36593e-05
2.25979e-05
2.13347e-05
1.98437e-05
1.81001e-05
1.60825e-05
1.37762e-05
1.11762e-05
8.29185e-06
5.1508e-06
1.80303e-06
-1.67683e-06
-5.1895e-06
-8.6145e-06
-1.18179e-05
-1.46642e-05
-1.70312e-05
-1.88259e-05
-1.99963e-05
-2.05388e-05
-2.04963e-05
-1.99491e-05
-1.90009e-05
-1.77637e-05
-1.63447e-05
-1.48381e-05
-1.33198e-05
-1.18471e-05
-1.04597e-05
-9.18207e-06
-8.02668e-06
-6.99688e-06
-6.08957e-06
-5.29745e-06
-4.61076e-06
-4.0186e-06
-3.5098e-06
-3.0736e-06
-2.69996e-06
-2.37981e-06
-2.1051e-06
-1.8688e-06
-1.66487e-06
-1.48814e-06
-1.33426e-06
-1.19956e-06
-1.08098e-06
-9.75974e-07
-8.82418e-07
-7.98562e-07
-7.22956e-07
-6.54396e-07
-5.91887e-07
-5.34597e-07
-4.81836e-07
-4.33021e-07
-3.87658e-07
-3.45324e-07
-3.0565e-07
-2.68311e-07
-2.33012e-07
-1.99482e-07
-1.67468e-07
-1.36725e-07
-1.07018e-07
-7.81398e-08
-4.96784e-08
-2.36768e-08
2.79203e-05
2.78958e-05
2.78321e-05
2.77295e-05
2.75863e-05
2.73964e-05
2.71517e-05
2.68422e-05
2.64558e-05
2.59781e-05
2.53918e-05
2.46773e-05
2.38122e-05
2.27716e-05
2.15291e-05
2.00571e-05
1.8329e-05
1.63211e-05
1.40156e-05
1.14045e-05
8.49394e-06
5.30918e-06
1.89891e-06
-1.66155e-06
-5.26955e-06
-8.7983e-06
-1.21048e-05
-1.50427e-05
-1.74793e-05
-1.93128e-05
-2.04871e-05
-2.09998e-05
-2.08997e-05
-2.02767e-05
-1.92447e-05
-1.79251e-05
-1.6432e-05
-1.48633e-05
-1.32967e-05
-1.17891e-05
-1.03787e-05
-9.08799e-06
-7.92734e-06
-6.89799e-06
-5.99507e-06
-5.20982e-06
-4.53134e-06
-3.94789e-06
-3.44774e-06
-3.01975e-06
-2.65366e-06
-2.34029e-06
-2.07155e-06
-1.84045e-06
-1.64097e-06
-1.46804e-06
-1.31737e-06
-1.18536e-06
-1.06902e-06
-9.65883e-07
-8.73881e-07
-7.91314e-07
-7.16776e-07
-6.49103e-07
-5.87331e-07
-5.30658e-07
-4.78414e-07
-4.30037e-07
-3.85049e-07
-3.4304e-07
-3.03654e-07
-2.66572e-07
-2.3151e-07
-1.982e-07
-1.66394e-07
-1.35852e-07
-1.06338e-07
-7.76463e-08
-4.93671e-08
-2.35273e-08
2.7958e-05
2.79348e-05
2.7874e-05
2.77762e-05
2.76396e-05
2.74582e-05
2.72241e-05
2.69275e-05
2.65563e-05
2.60963e-05
2.55303e-05
2.48383e-05
2.39976e-05
2.29825e-05
2.17654e-05
2.03172e-05
1.86087e-05
1.66133e-05
1.43096e-05
1.16859e-05
8.7443e-06
5.50691e-06
2.02065e-06
-1.63848e-06
-5.36388e-06
-9.02102e-06
-1.24556e-05
-1.55078e-05
-1.8031e-05
-1.99127e-05
-2.10916e-05
-2.15664e-05
-2.1394e-05
-2.06762e-05
-1.95402e-05
-1.81189e-05
-1.65347e-05
-1.48903e-05
-1.32651e-05
-1.17154e-05
-1.02777e-05
-8.97176e-06
-7.80528e-06
-6.77697e-06
-5.87976e-06
-5.10313e-06
-4.43481e-06
-3.86209e-06
-3.37253e-06
-2.95456e-06
-2.59766e-06
-2.29252e-06
-2.03103e-06
-1.80621e-06
-1.61213e-06
-1.44378e-06
-1.29698e-06
-1.16822e-06
-1.05459e-06
-9.53711e-07
-8.63582e-07
-7.82569e-07
-7.09319e-07
-6.42715e-07
-5.81832e-07
-5.25901e-07
-4.74281e-07
-4.26433e-07
-3.81897e-07
-3.40281e-07
-3.0124e-07
-2.6447e-07
-2.29693e-07
-1.9665e-07
-1.65096e-07
-1.34796e-07
-1.05516e-07
-7.70506e-08
-4.89921e-08
-2.33517e-08
2.80013e-05
2.79794e-05
2.79221e-05
2.78299e-05
2.77008e-05
2.75292e-05
2.73073e-05
2.70255e-05
2.66719e-05
2.62324e-05
2.56898e-05
2.5024e-05
2.42117e-05
2.32265e-05
2.20394e-05
2.06192e-05
1.89342e-05
1.69544e-05
1.46542e-05
1.20171e-05
9.04072e-06
5.7431e-06
2.16886e-06
-1.6055e-06
-5.46895e-06
-9.27794e-06
-1.28647e-05
-1.60531e-05
-1.86798e-05
-2.0619e-05
-2.18026e-05
-2.22313e-05
-2.19718e-05
-2.11405e-05
-1.98809e-05
-1.83395e-05
-1.66486e-05
-1.49162e-05
-1.32235e-05
-1.16258e-05
-1.01573e-05
-8.83457e-06
-7.66213e-06
-6.63568e-06
-5.74562e-06
-4.97936e-06
-4.32309e-06
-3.76296e-06
-3.28577e-06
-2.87945e-06
-2.5332e-06
-2.23758e-06
-1.98446e-06
-1.76688e-06
-1.57902e-06
-1.41594e-06
-1.27359e-06
-1.14855e-06
-1.03804e-06
-9.39747e-07
-8.51767e-07
-7.72534e-07
-7.00761e-07
-6.35382e-07
-5.75518e-07
-5.20438e-07
-4.69533e-07
-4.2229e-07
-3.78273e-07
-3.37107e-07
-2.98463e-07
-2.6205e-07
-2.276e-07
-1.94864e-07
-1.63601e-07
-1.3358e-07
-1.04569e-07
-7.63649e-08
-4.85608e-08
-2.31513e-08
2.80492e-05
2.80287e-05
2.79753e-05
2.78892e-05
2.77685e-05
2.76077e-05
2.73993e-05
2.71339e-05
2.68e-05
2.63834e-05
2.58669e-05
2.52304e-05
2.445e-05
2.34986e-05
2.23455e-05
2.09575e-05
1.93e-05
1.73389e-05
1.50442e-05
1.23938e-05
9.38009e-06
6.01621e-06
2.34382e-06
-1.56037e-06
-5.58063e-06
-9.56326e-06
-1.33251e-05
-1.66706e-05
-1.94169e-05
-2.14223e-05
-2.26107e-05
-2.29851e-05
-2.26239e-05
-2.16612e-05
-2.02593e-05
-1.85809e-05
-1.67693e-05
-1.49383e-05
-1.31706e-05
-1.15203e-05
-1.00184e-05
-8.67813e-06
-7.50004e-06
-6.47653e-06
-5.5951e-06
-4.8409e-06
-4.19843e-06
-3.65257e-06
-3.18932e-06
-2.79606e-06
-2.46172e-06
-2.17671e-06
-1.93289e-06
-1.72337e-06
-1.54239e-06
-1.38516e-06
-1.24773e-06
-1.12682e-06
-1.01975e-06
-9.24313e-07
-8.38706e-07
-7.61441e-07
-6.91298e-07
-6.27272e-07
-5.68533e-07
-5.14393e-07
-4.64277e-07
-4.17703e-07
-3.74258e-07
-3.33588e-07
-2.95384e-07
-2.59366e-07
-2.25278e-07
-1.92881e-07
-1.61941e-07
-1.32229e-07
-1.03519e-07
-7.56043e-08
-4.80829e-08
-2.293e-08
2.81005e-05
2.80816e-05
2.80323e-05
2.79527e-05
2.7841e-05
2.76919e-05
2.74981e-05
2.72504e-05
2.69376e-05
2.65457e-05
2.60577e-05
2.5453e-05
2.47075e-05
2.3793e-05
2.26775e-05
2.13254e-05
1.9699e-05
1.776e-05
1.5473e-05
1.28104e-05
9.75801e-06
6.3236e-06
2.54506e-06
-1.50115e-06
-5.69451e-06
-9.87027e-06
-1.38279e-05
-1.73502e-05
-2.02313e-05
-2.2311e-05
-2.35039e-05
-2.38158e-05
-2.33388e-05
-2.22278e-05
-2.06667e-05
-1.88364e-05
-1.68922e-05
-1.4954e-05
-1.31055e-05
-1.13993e-05
-9.86274e-06
-8.50472e-06
-7.32173e-06
-6.3024e-06
-5.43111e-06
-4.69058e-06
-4.06344e-06
-3.53331e-06
-3.0853e-06
-2.70628e-06
-2.38485e-06
-2.11133e-06
-1.87755e-06
-1.6767e-06
-1.50313e-06
-1.35218e-06
-1.22002e-06
-1.10354e-06
-1.00015e-06
-9.07785e-07
-8.2472e-07
-7.4956e-07
-6.81162e-07
-6.18583e-07
-5.61047e-07
-5.07912e-07
-4.58641e-07
-4.12781e-07
-3.69948e-07
-3.2981e-07
-2.92076e-07
-2.5648e-07
-2.22781e-07
-1.90747e-07
-1.60154e-07
-1.30776e-07
-1.02389e-07
-7.4787e-08
-4.757e-08
-2.2693e-08
2.8154e-05
2.81368e-05
2.80918e-05
2.80191e-05
2.79168e-05
2.77798e-05
2.76013e-05
2.73722e-05
2.70816e-05
2.67158e-05
2.62576e-05
2.56867e-05
2.49783e-05
2.41034e-05
2.30283e-05
2.17153e-05
2.01231e-05
1.82092e-05
1.59328e-05
1.32595e-05
1.01686e-05
6.66132e-06
2.77112e-06
-1.4264e-06
-5.80601e-06
-1.01913e-05
-1.4363e-05
-1.80793e-05
-2.11087e-05
-2.327e-05
-2.4467e-05
-2.47085e-05
-2.41027e-05
-2.28281e-05
-2.10933e-05
-1.90987e-05
-1.70126e-05
-1.49608e-05
-1.3028e-05
-1.12641e-05
-9.69246e-06
-8.31732e-06
-7.13056e-06
-6.11679e-06
-5.25709e-06
-4.53161e-06
-3.92111e-06
-3.40786e-06
-2.9761e-06
-2.61216e-06
-2.30438e-06
-2.04295e-06
-1.81973e-06
-1.62797e-06
-1.46215e-06
-1.31777e-06
-1.19113e-06
-1.07926e-06
-9.79728e-07
-8.90554e-07
-8.10137e-07
-7.37172e-07
-6.70591e-07
-6.09519e-07
-5.53237e-07
-5.01148e-07
-4.52755e-07
-4.0764e-07
-3.65445e-07
-3.25861e-07
-2.88615e-07
-2.5346e-07
-2.20166e-07
-1.88513e-07
-1.58282e-07
-1.29254e-07
-1.01205e-07
-7.39319e-08
-4.70338e-08
-2.24455e-08
2.82085e-05
2.8193e-05
2.81524e-05
2.80866e-05
2.79939e-05
2.78694e-05
2.77064e-05
2.74964e-05
2.72286e-05
2.68895e-05
2.64622e-05
2.59261e-05
2.52562e-05
2.44225e-05
2.33899e-05
2.21182e-05
2.05631e-05
1.86772e-05
1.6414e-05
1.37325e-05
1.06043e-05
7.02383e-06
3.01919e-06
-1.33552e-06
-5.91073e-06
-1.05181e-05
-1.49182e-05
-1.88427e-05
-2.2032e-05
-2.42807e-05
-2.54809e-05
-2.56452e-05
-2.48994e-05
-2.34487e-05
-2.15283e-05
-1.93603e-05
-1.7126e-05
-1.4957e-05
-1.29383e-05
-1.11166e-05
-9.5107e-06
-8.11967e-06
-6.93055e-06
-5.92374e-06
-5.07693e-06
-4.36764e-06
-3.77473e-06
-3.27916e-06
-2.86431e-06
-2.51598e-06
-2.22226e-06
-1.97325e-06
-1.76084e-06
-1.57838e-06
-1.42048e-06
-1.28279e-06
-1.16178e-06
-1.05461e-06
-9.58982e-07
-8.73054e-07
-7.95328e-07
-7.24591e-07
-6.59854e-07
-6.00312e-07
-5.45302e-07
-4.94274e-07
-4.46773e-07
-4.02413e-07
-3.60864e-07
-3.21841e-07
-2.85092e-07
-2.50384e-07
-2.17502e-07
-1.86235e-07
-1.56373e-07
-1.27702e-07
-1e-07
-7.30617e-08
-4.64891e-08
-2.21946e-08
2.82627e-05
2.82489e-05
2.82126e-05
2.81538e-05
2.80707e-05
2.79586e-05
2.78111e-05
2.76201e-05
2.7375e-05
2.70627e-05
2.66664e-05
2.61655e-05
2.55345e-05
2.47427e-05
2.37537e-05
2.25249e-05
2.10086e-05
1.9153e-05
1.69057e-05
1.42187e-05
1.10558e-05
7.40377e-06
3.28488e-06
-1.22906e-06
-6.00468e-06
-1.08417e-05
-1.54799e-05
-1.96229e-05
-2.29802e-05
-2.53207e-05
-2.65234e-05
-2.66046e-05
-2.57102e-05
-2.40741e-05
-2.19605e-05
-1.96139e-05
-1.72287e-05
-1.49419e-05
-1.28379e-05
-1.09599e-05
-9.32142e-06
-7.91625e-06
-6.72634e-06
-5.72781e-06
-4.89492e-06
-4.20261e-06
-3.62785e-06
-3.15033e-06
-2.75262e-06
-2.42005e-06
-2.14046e-06
-1.90391e-06
-1.70231e-06
-1.52912e-06
-1.37912e-06
-1.24809e-06
-1.13267e-06
-1.03016e-06
-9.38416e-07
-8.55709e-07
-7.8065e-07
-7.12121e-07
-6.49212e-07
-5.91186e-07
-5.37435e-07
-4.87459e-07
-4.40841e-07
-3.97228e-07
-3.56319e-07
-3.17852e-07
-2.81593e-07
-2.47328e-07
-2.14853e-07
-1.8397e-07
-1.54476e-07
-1.2616e-07
-9.8803e-08
-7.21989e-08
-4.595e-08
-2.19468e-08
2.83153e-05
2.83031e-05
2.82711e-05
2.8219e-05
2.81452e-05
2.80451e-05
2.79127e-05
2.77402e-05
2.75174e-05
2.72312e-05
2.68653e-05
2.63989e-05
2.58063e-05
2.50562e-05
2.41106e-05
2.2925e-05
2.14484e-05
1.96246e-05
1.73955e-05
1.47059e-05
1.15118e-05
7.79191e-06
3.56203e-06
-1.10895e-06
-6.08458e-06
-1.11531e-05
-1.60332e-05
-2.03996e-05
-2.39293e-05
-2.63639e-05
-2.7568e-05
-2.75624e-05
-2.65142e-05
-2.4688e-05
-2.23784e-05
-1.98525e-05
-1.73178e-05
-1.49156e-05
-1.27293e-05
-1.07979e-05
-9.12951e-06
-7.71231e-06
-6.52321e-06
-5.53404e-06
-4.71575e-06
-4.04073e-06
-3.48421e-06
-3.02467e-06
-2.64391e-06
-2.32683e-06
-2.0611e-06
-1.83671e-06
-1.64564e-06
-1.48148e-06
-1.33914e-06
-1.21457e-06
-1.10455e-06
-1.00656e-06
-9.18574e-07
-8.38979e-07
-7.66497e-07
-7.00099e-07
-6.38955e-07
-5.8239e-07
-5.29854e-07
-4.80892e-07
-4.35124e-07
-3.9223e-07
-3.51938e-07
-3.14005e-07
-2.78218e-07
-2.44379e-07
-2.12297e-07
-1.81783e-07
-1.52643e-07
-1.24671e-07
-9.76479e-08
-7.13673e-08
-4.5431e-08
-2.17084e-08
2.83651e-05
2.83545e-05
2.83265e-05
2.82808e-05
2.82156e-05
2.81269e-05
2.80089e-05
2.78539e-05
2.76521e-05
2.73909e-05
2.70539e-05
2.66205e-05
2.60648e-05
2.53548e-05
2.44513e-05
2.3308e-05
2.18708e-05
2.00794e-05
1.787e-05
1.51806e-05
1.19595e-05
8.17719e-06
3.84268e-06
-9.78727e-07
-6.14821e-06
-1.14433e-05
-1.65622e-05
-2.11504e-05
-2.48522e-05
-2.73805e-05
-2.85852e-05
-2.84914e-05
-2.72887e-05
-2.52733e-05
-2.27705e-05
-2.00699e-05
-1.73912e-05
-1.48794e-05
-1.2616e-05
-1.06355e-05
-8.94055e-06
-7.51366e-06
-6.3268e-06
-5.34774e-06
-4.54422e-06
-3.88632e-06
-3.34759e-06
-2.90542e-06
-2.54094e-06
-2.23869e-06
-1.98615e-06
-1.77332e-06
-1.59224e-06
-1.43662e-06
-1.30152e-06
-1.18304e-06
-1.07813e-06
-9.84396e-07
-8.9994e-07
-8.23274e-07
-7.53216e-07
-6.88822e-07
-6.29336e-07
-5.74145e-07
-5.2275e-07
-4.74739e-07
-4.29769e-07
-3.87551e-07
-3.47836e-07
-3.10405e-07
-2.7506e-07
-2.41619e-07
-2.09904e-07
-1.79737e-07
-1.5093e-07
-1.2328e-07
-9.65709e-08
-7.05941e-08
-4.49507e-08
-2.14895e-08
2.8411e-05
2.84018e-05
2.83774e-05
2.83375e-05
2.82804e-05
2.82021e-05
2.80972e-05
2.79583e-05
2.77759e-05
2.75376e-05
2.72274e-05
2.68245e-05
2.63031e-05
2.56305e-05
2.47667e-05
2.36633e-05
2.22638e-05
2.0504e-05
1.8315e-05
1.56284e-05
1.23848e-05
8.54707e-06
4.11717e-06
-8.43482e-07
-6.19456e-06
-1.17039e-05
-1.70506e-05
-2.18518e-05
-2.57194e-05
-2.8338e-05
-2.95425e-05
-2.93625e-05
-2.801e-05
-2.58126e-05
-2.3126e-05
-2.0261e-05
-1.74484e-05
-1.48358e-05
-1.25026e-05
-1.04786e-05
-8.76085e-06
-7.32661e-06
-6.14316e-06
-5.17447e-06
-4.38535e-06
-3.74378e-06
-3.22182e-06
-2.7959e-06
-2.44656e-06
-2.15803e-06
-1.91767e-06
-1.71548e-06
-1.54357e-06
-1.39577e-06
-1.26729e-06
-1.15438e-06
-1.05413e-06
-9.64274e-07
-8.83039e-07
-8.0904e-07
-7.41187e-07
-6.78616e-07
-6.20637e-07
-5.66693e-07
-5.16333e-07
-4.69185e-07
-4.24938e-07
-3.83332e-07
-3.44138e-07
-3.07158e-07
-2.72212e-07
-2.3913e-07
-2.07746e-07
-1.77891e-07
-1.49383e-07
-1.22025e-07
-9.55988e-08
-6.98962e-08
-4.45165e-08
-2.12903e-08
2.84518e-05
2.84438e-05
2.84227e-05
2.8388e-05
2.83379e-05
2.82689e-05
2.81755e-05
2.80509e-05
2.78857e-05
2.76677e-05
2.73812e-05
2.70056e-05
2.65148e-05
2.58757e-05
2.50476e-05
2.39806e-05
2.26157e-05
2.08855e-05
1.87165e-05
1.60344e-05
1.2773e-05
8.888e-06
4.37466e-06
-7.09704e-07
-6.22392e-06
-1.19276e-05
-1.74823e-05
-2.24794e-05
-2.65002e-05
-2.92022e-05
-3.0406e-05
-3.01455e-05
-2.8654e-05
-2.62893e-05
-2.3435e-05
-2.04217e-05
-1.74896e-05
-1.47883e-05
-1.23944e-05
-1.03333e-05
-8.59689e-06
-7.15748e-06
-5.97817e-06
-5.01954e-06
-4.24384e-06
-3.6172e-06
-3.11041e-06
-2.69909e-06
-2.36329e-06
-2.08697e-06
-1.85742e-06
-1.66464e-06
-1.50083e-06
-1.35994e-06
-1.2373e-06
-1.12929e-06
-1.03314e-06
-9.46693e-07
-8.68287e-07
-7.9663e-07
-7.30713e-07
-6.69741e-07
-6.13083e-07
-5.60233e-07
-5.10779e-07
-4.64386e-07
-4.20771e-07
-3.79697e-07
-3.40958e-07
-3.04372e-07
-2.69771e-07
-2.37e-07
-2.05902e-07
-1.76316e-07
-1.48066e-07
-1.20959e-07
-9.47782e-08
-6.93116e-08
-4.41574e-08
-2.11298e-08
2.84867e-05
2.84798e-05
2.84613e-05
2.84309e-05
2.83869e-05
2.83255e-05
2.82419e-05
2.81293e-05
2.79786e-05
2.77778e-05
2.75114e-05
2.71588e-05
2.6694e-05
2.60836e-05
2.5286e-05
2.42503e-05
2.29155e-05
2.12114e-05
1.90606e-05
1.6384e-05
1.31096e-05
9.18627e-06
4.60368e-06
-5.84811e-07
-6.23778e-06
-1.21082e-05
-1.78427e-05
-2.30099e-05
-2.71644e-05
-2.99394e-05
-3.11423e-05
-3.08109e-05
-2.91978e-05
-2.66877e-05
-2.36891e-05
-2.05493e-05
-1.75164e-05
-1.4741e-05
-1.22972e-05
-1.02062e-05
-8.45526e-06
-7.01259e-06
-5.83765e-06
-4.88818e-06
-4.12429e-06
-3.51057e-06
-3.0168e-06
-2.61792e-06
-2.29359e-06
-2.02759e-06
-1.80715e-06
-1.62228e-06
-1.46527e-06
-1.33017e-06
-1.21241e-06
-1.1085e-06
-1.01577e-06
-9.3217e-07
-8.56121e-07
-7.86413e-07
-7.22106e-07
-6.62462e-07
-6.069e-07
-5.54956e-07
-5.06252e-07
-4.60482e-07
-4.17388e-07
-3.76752e-07
-3.38385e-07
-3.02119e-07
-2.678e-07
-2.3528e-07
-2.04413e-07
-1.75044e-07
-1.47003e-07
-1.20098e-07
-9.41131e-08
-6.88356e-08
-4.38615e-08
-2.09932e-08
2.85148e-05
2.85087e-05
2.84924e-05
2.84654e-05
2.8426e-05
2.83708e-05
2.82948e-05
2.81916e-05
2.80523e-05
2.7865e-05
2.76144e-05
2.72801e-05
2.68358e-05
2.62481e-05
2.54748e-05
2.44641e-05
2.31536e-05
2.14707e-05
1.93354e-05
1.66643e-05
1.33809e-05
9.4289e-06
4.79311e-06
-4.76467e-07
-6.23849e-06
-1.22408e-05
-1.81186e-05
-2.34222e-05
-2.76842e-05
-3.05179e-05
-3.17201e-05
-3.13315e-05
-2.96206e-05
-2.69943e-05
-2.38813e-05
-2.06422e-05
-1.75308e-05
-1.46983e-05
-1.22165e-05
-1.01032e-05
-8.34184e-06
-6.89743e-06
-5.72657e-06
-4.78475e-06
-4.03046e-06
-3.42711e-06
-2.94368e-06
-2.55463e-06
-2.23934e-06
-1.98146e-06
-1.76815e-06
-1.58948e-06
-1.43778e-06
-1.30719e-06
-1.19324e-06
-1.09253e-06
-1.00246e-06
-9.21074e-07
-8.46858e-07
-7.78665e-07
-7.15608e-07
-6.56994e-07
-6.02281e-07
-5.51036e-07
-5.02911e-07
-4.57619e-07
-4.14924e-07
-3.74622e-07
-3.36537e-07
-3.00513e-07
-2.66404e-07
-2.34071e-07
-2.03373e-07
-1.74163e-07
-1.46273e-07
-1.19513e-07
-9.36695e-08
-6.85262e-08
-4.36777e-08
-2.09164e-08
2.85356e-05
2.85301e-05
2.85153e-05
2.84906e-05
2.84545e-05
2.84035e-05
2.8333e-05
2.82363e-05
2.81049e-05
2.79272e-05
2.76876e-05
2.7366e-05
2.69362e-05
2.63644e-05
2.56083e-05
2.46152e-05
2.3322e-05
2.16545e-05
1.95306e-05
1.68642e-05
1.35756e-05
9.60482e-06
4.9332e-06
-3.9169e-07
-6.22875e-06
-1.23225e-05
-1.83e-05
-2.36989e-05
-2.80363e-05
-3.09114e-05
-3.2113e-05
-3.16845e-05
-2.99055e-05
-2.71986e-05
-2.40068e-05
-2.06997e-05
-1.75351e-05
-1.46643e-05
-1.21573e-05
-1.00295e-05
-8.26178e-06
-6.81681e-06
-5.64924e-06
-4.71307e-06
-3.96565e-06
-3.36963e-06
-2.89346e-06
-2.51127e-06
-2.20227e-06
-1.95e-06
-1.74162e-06
-1.56722e-06
-1.41918e-06
-1.2917e-06
-1.18037e-06
-1.08184e-06
-9.93599e-07
-9.13722e-07
-8.40757e-07
-7.73595e-07
-7.11386e-07
-6.5347e-07
-5.9933e-07
-5.48555e-07
-5.00816e-07
-4.55843e-07
-4.1341e-07
-3.73326e-07
-3.35424e-07
-2.99553e-07
-2.65576e-07
-2.33358e-07
-2.02763e-07
-1.73648e-07
-1.45846e-07
-1.19172e-07
-9.34081e-08
-6.83401e-08
-4.35607e-08
-2.08598e-08
2.85486e-05
2.85433e-05
2.85294e-05
2.8506e-05
2.84717e-05
2.84231e-05
2.83554e-05
2.82624e-05
2.81353e-05
2.79627e-05
2.77291e-05
2.74144e-05
2.69923e-05
2.64292e-05
2.56823e-05
2.4699e-05
2.34152e-05
2.17563e-05
1.9639e-05
1.69759e-05
1.36853e-05
9.70581e-06
5.0166e-06
-3.35978e-07
-6.21099e-06
-1.23513e-05
-1.83798e-05
-2.38277e-05
-2.8204e-05
-3.11005e-05
-3.23022e-05
-3.18536e-05
-3.00403e-05
-2.72931e-05
-2.40621e-05
-2.07216e-05
-1.75311e-05
-1.46419e-05
-1.21232e-05
-9.98878e-06
-8.21858e-06
-6.7739e-06
-5.60847e-06
-4.67554e-06
-3.93191e-06
-3.33985e-06
-2.86757e-06
-2.48902e-06
-2.18334e-06
-1.93402e-06
-1.72824e-06
-1.55608e-06
-1.40995e-06
-1.28409e-06
-1.17412e-06
-1.07674e-06
-9.89445e-07
-9.10353e-07
-8.38034e-07
-7.71403e-07
-7.09628e-07
-6.52066e-07
-5.98213e-07
-5.47672e-07
-5.00121e-07
-4.55299e-07
-4.12988e-07
-3.73002e-07
-3.35177e-07
-2.99368e-07
-2.65439e-07
-2.3326e-07
-2.02697e-07
-1.73607e-07
-1.45827e-07
-1.1917e-07
-9.34209e-08
-6.83624e-08
-4.35867e-08
-2.08824e-08
2.85535e-05
2.85483e-05
2.85345e-05
2.85113e-05
2.84773e-05
2.8429e-05
2.83617e-05
2.82691e-05
2.81426e-05
2.79706e-05
2.77378e-05
2.74239e-05
2.70028e-05
2.64407e-05
2.56949e-05
2.47128e-05
2.34303e-05
2.17727e-05
1.96567e-05
1.6995e-05
1.37057e-05
9.72741e-06
5.03926e-06
-3.1242e-07
-6.18674e-06
-1.23265e-05
-1.83547e-05
-2.38024e-05
-2.81787e-05
-3.10754e-05
-3.22778e-05
-3.18304e-05
-3.0019e-05
-2.72742e-05
-2.4046e-05
-2.07082e-05
-1.75201e-05
-1.46331e-05
-1.21162e-05
-9.98324e-06
-8.21424e-06
-6.77054e-06
-5.6059e-06
-4.6736e-06
-3.93049e-06
-3.33884e-06
-2.8669e-06
-2.48863e-06
-2.18317e-06
-1.93404e-06
-1.72841e-06
-1.55637e-06
-1.41034e-06
-1.28456e-06
-1.17465e-06
-1.07731e-06
-9.90054e-07
-9.10986e-07
-8.38683e-07
-7.7206e-07
-7.10286e-07
-6.52719e-07
-5.98857e-07
-5.48302e-07
-5.00734e-07
-4.55892e-07
-4.13558e-07
-3.73545e-07
-3.35692e-07
-2.99851e-07
-2.65889e-07
-2.33674e-07
-2.03073e-07
-1.73941e-07
-1.46117e-07
-1.19412e-07
-9.36126e-08
-6.85011e-08
-4.36697e-08
-2.09154e-08
2.85504e-05
2.8545e-05
2.85306e-05
2.85065e-05
2.84712e-05
2.84212e-05
2.83518e-05
2.82566e-05
2.81269e-05
2.79511e-05
2.77137e-05
2.73946e-05
2.69675e-05
2.63988e-05
2.56459e-05
2.46565e-05
2.3367e-05
2.17035e-05
1.95836e-05
1.69213e-05
1.36365e-05
9.66934e-06
5.00089e-06
-3.2134e-07
-6.15632e-06
-1.22485e-05
-1.8225e-05
-2.36234e-05
-2.79608e-05
-3.08366e-05
-3.20403e-05
-3.16154e-05
-2.9842e-05
-2.71423e-05
-2.39585e-05
-2.06594e-05
-1.75021e-05
-1.46377e-05
-1.21361e-05
-1.00126e-05
-8.24859e-06
-6.80655e-06
-5.64135e-06
-4.70709e-06
-3.96123e-06
-3.36647e-06
-2.89134e-06
-2.51001e-06
-2.2017e-06
-1.95001e-06
-1.74211e-06
-1.5681e-06
-1.42037e-06
-1.29315e-06
-1.18202e-06
-1.08365e-06
-9.95524e-07
-9.15732e-07
-8.42824e-07
-7.75694e-07
-7.13495e-07
-6.55571e-07
-6.01406e-07
-5.50593e-07
-5.02804e-07
-4.57769e-07
-4.15266e-07
-3.75102e-07
-3.37111e-07
-3.01144e-07
-2.67062e-07
-2.34732e-07
-2.04018e-07
-1.74773e-07
-1.46835e-07
-1.20014e-07
-9.40957e-08
-6.88635e-08
-4.39091e-08
-2.10378e-08
2.85394e-05
2.85335e-05
2.85178e-05
2.84918e-05
2.84537e-05
2.84001e-05
2.83261e-05
2.82253e-05
2.80887e-05
2.79047e-05
2.76577e-05
2.73274e-05
2.68877e-05
2.6305e-05
2.55372e-05
2.45324e-05
2.32281e-05
2.15518e-05
1.9423e-05
1.67586e-05
1.34815e-05
9.53546e-06
4.90488e-06
-3.60323e-07
-6.11893e-06
-1.21188e-05
-1.79949e-05
-2.32977e-05
-2.75598e-05
-3.03949e-05
-3.16005e-05
-3.12181e-05
-2.95163e-05
-2.69016e-05
-2.38016e-05
-2.05755e-05
-1.74761e-05
-1.46541e-05
-1.21811e-05
-1.00751e-05
-8.31978e-06
-6.88025e-06
-5.71334e-06
-4.77472e-06
-4.02302e-06
-3.42178e-06
-2.94008e-06
-2.55245e-06
-2.23833e-06
-1.9814e-06
-1.76888e-06
-1.59084e-06
-1.43967e-06
-1.3095e-06
-1.19588e-06
-1.09542e-06
-1.00555e-06
-9.24294e-07
-8.50168e-07
-7.82025e-07
-7.18983e-07
-6.60354e-07
-6.056e-07
-5.54292e-07
-5.06084e-07
-4.60693e-07
-4.17882e-07
-3.7745e-07
-3.39222e-07
-3.03041e-07
-2.68762e-07
-2.36246e-07
-2.05354e-07
-1.75934e-07
-1.47821e-07
-1.20824e-07
-9.47276e-08
-6.93177e-08
-4.41871e-08
-2.11591e-08
2.85209e-05
2.85142e-05
2.84967e-05
2.84676e-05
2.84253e-05
2.83663e-05
2.82854e-05
2.81761e-05
2.80292e-05
2.78329e-05
2.75714e-05
2.72246e-05
2.6766e-05
2.61625e-05
2.53725e-05
2.43449e-05
2.30187e-05
2.13235e-05
1.91819e-05
1.65144e-05
1.32486e-05
9.33342e-06
4.75798e-06
-4.2452e-07
-6.0728e-06
-1.19398e-05
-1.76721e-05
-2.28384e-05
-2.69932e-05
-2.97704e-05
-3.09782e-05
-3.06554e-05
-2.90546e-05
-2.65602e-05
-2.35791e-05
-2.04569e-05
-1.74403e-05
-1.46792e-05
-1.22476e-05
-1.01667e-05
-8.42404e-06
-6.98817e-06
-5.81876e-06
-4.87378e-06
-4.11355e-06
-3.50282e-06
-3.0115e-06
-2.61463e-06
-2.29196e-06
-2.02733e-06
-1.808e-06
-1.62405e-06
-1.46779e-06
-1.33329e-06
-1.21601e-06
-1.11247e-06
-1.02002e-06
-9.36625e-07
-8.60712e-07
-7.91083e-07
-7.26804e-07
-6.67146e-07
-6.11534e-07
-5.59506e-07
-5.10691e-07
-4.64784e-07
-4.21532e-07
-3.80717e-07
-3.42152e-07
-3.05669e-07
-2.71114e-07
-2.38341e-07
-2.07202e-07
-1.77543e-07
-1.49192e-07
-1.21957e-07
-9.5623e-08
-6.99761e-08
-4.46103e-08
-2.13655e-08
2.84954e-05
2.84878e-05
2.84677e-05
2.84347e-05
2.83869e-05
2.83207e-05
2.82309e-05
2.81104e-05
2.79501e-05
2.77378e-05
2.74576e-05
2.70892e-05
2.66063e-05
2.5976e-05
2.51574e-05
2.41005e-05
2.27464e-05
2.10275e-05
1.88699e-05
1.61991e-05
1.29487e-05
9.07382e-06
4.56942e-06
-5.07464e-07
-6.01583e-06
-1.17154e-05
-1.72675e-05
-2.22635e-05
-2.6285e-05
-2.89902e-05
-3.02005e-05
-2.99508e-05
-2.84746e-05
-2.61291e-05
-2.32963e-05
-2.03046e-05
-1.73927e-05
-1.47092e-05
-1.23306e-05
-1.02823e-05
-8.55642e-06
-7.1257e-06
-5.95349e-06
-5.00064e-06
-4.22967e-06
-3.60689e-06
-3.10328e-06
-2.69457e-06
-2.36092e-06
-2.08637e-06
-1.85827e-06
-1.66667e-06
-1.50383e-06
-1.36372e-06
-1.2417e-06
-1.13417e-06
-1.03838e-06
-9.52199e-07
-8.7397e-07
-8.02417e-07
-7.3654e-07
-6.75554e-07
-6.18834e-07
-5.65882e-07
-5.1629e-07
-4.69728e-07
-4.25915e-07
-3.84618e-07
-3.45631e-07
-3.08772e-07
-2.73877e-07
-2.40787e-07
-2.09349e-07
-1.79398e-07
-1.50761e-07
-1.23241e-07
-9.66223e-08
-7.06944e-08
-4.5053e-08
-2.15628e-08
2.84636e-05
2.84549e-05
2.84318e-05
2.8394e-05
2.83396e-05
2.82648e-05
2.81641e-05
2.80302e-05
2.78537e-05
2.76222e-05
2.73195e-05
2.69253e-05
2.64133e-05
2.57512e-05
2.48987e-05
2.38075e-05
2.24208e-05
2.06743e-05
1.84989e-05
1.58257e-05
1.2595e-05
8.76921e-06
4.34987e-06
-6.01965e-07
-5.94617e-06
-1.14507e-05
-1.67945e-05
-2.15947e-05
-2.54636e-05
-2.80864e-05
-2.92989e-05
-2.91319e-05
-2.77973e-05
-2.56223e-05
-2.29604e-05
-2.01205e-05
-1.73313e-05
-1.47397e-05
-1.24246e-05
-1.04159e-05
-8.71088e-06
-7.28716e-06
-6.11235e-06
-5.15073e-06
-4.36742e-06
-3.73062e-06
-3.21258e-06
-2.78989e-06
-2.44322e-06
-2.15689e-06
-1.91833e-06
-1.71762e-06
-1.54691e-06
-1.40009e-06
-1.27239e-06
-1.16008e-06
-1.0603e-06
-9.70776e-07
-8.89772e-07
-8.15913e-07
-7.48122e-07
-6.85545e-07
-6.27501e-07
-5.73443e-07
-5.22924e-07
-4.75578e-07
-4.31099e-07
-3.89227e-07
-3.49738e-07
-3.12434e-07
-2.77136e-07
-2.43674e-07
-2.11882e-07
-1.81592e-07
-1.5262e-07
-1.24769e-07
-9.78213e-08
-7.15693e-08
-4.56093e-08
-2.18285e-08
2.84265e-05
2.84165e-05
2.839e-05
2.83466e-05
2.82847e-05
2.82e-05
2.80868e-05
2.79377e-05
2.77427e-05
2.74893e-05
2.71611e-05
2.67376e-05
2.61929e-05
2.54948e-05
2.46044e-05
2.3475e-05
2.20525e-05
2.02763e-05
1.80823e-05
1.54082e-05
1.22017e-05
8.43299e-06
4.11045e-06
-7.00965e-07
-5.8627e-06
-1.11524e-05
-1.62683e-05
-2.08558e-05
-2.45595e-05
-2.70931e-05
-2.83074e-05
-2.82285e-05
-2.7046e-05
-2.50554e-05
-2.25801e-05
-1.99074e-05
-1.7255e-05
-1.47669e-05
-1.25241e-05
-1.05613e-05
-8.88104e-06
-7.46643e-06
-6.28972e-06
-5.31902e-06
-4.52238e-06
-3.87014e-06
-3.33608e-06
-2.89777e-06
-2.53648e-06
-2.23685e-06
-1.98648e-06
-1.77542e-06
-1.59578e-06
-1.44133e-06
-1.30716e-06
-1.1894e-06
-1.08505e-06
-9.91724e-07
-9.07551e-07
-8.3106e-07
-7.61083e-07
-6.96692e-07
-6.37139e-07
-5.81822e-07
-5.30249e-07
-4.82015e-07
-4.36781e-07
-3.94261e-07
-3.54208e-07
-3.16406e-07
-2.80658e-07
-2.46781e-07
-2.146e-07
-1.83933e-07
-1.54594e-07
-1.26381e-07
-9.90755e-08
-7.24721e-08
-4.61689e-08
-2.20812e-08
2.83851e-05
2.83735e-05
2.83432e-05
2.82939e-05
2.82236e-05
2.81281e-05
2.80012e-05
2.78353e-05
2.76201e-05
2.73428e-05
2.69868e-05
2.65315e-05
2.59512e-05
2.52145e-05
2.42834e-05
2.31133e-05
2.1653e-05
1.98462e-05
1.76341e-05
1.49614e-05
1.17834e-05
8.0785e-06
3.8618e-06
-7.9822e-07
-5.76538e-06
-1.08281e-05
-1.57051e-05
-2.00711e-05
-2.36036e-05
-2.60447e-05
-2.72599e-05
-2.72708e-05
-2.62448e-05
-2.44454e-05
-2.21654e-05
-1.96695e-05
-1.71635e-05
-1.47873e-05
-1.26239e-05
-1.07122e-05
-9.06042e-06
-7.65716e-06
-6.47965e-06
-5.50009e-06
-4.68974e-06
-4.0213e-06
-3.47021e-06
-3.01516e-06
-2.63812e-06
-2.32411e-06
-2.06091e-06
-1.83859e-06
-1.64921e-06
-1.48643e-06
-1.34518e-06
-1.22147e-06
-1.11212e-06
-1.01461e-06
-9.26969e-07
-8.47593e-07
-7.75221e-07
-7.08842e-07
-6.47636e-07
-5.90942e-07
-5.38215e-07
-4.89009e-07
-4.42951e-07
-3.99724e-07
-3.59056e-07
-3.20711e-07
-2.84473e-07
-2.50147e-07
-2.17543e-07
-1.86471e-07
-1.56737e-07
-1.28136e-07
-1.00448e-07
-7.34699e-08
-4.68e-08
-2.23789e-08
2.83404e-05
2.83273e-05
2.82929e-05
2.82371e-05
2.81579e-05
2.80509e-05
2.79096e-05
2.77258e-05
2.74892e-05
2.71866e-05
2.68013e-05
2.63125e-05
2.5695e-05
2.4918e-05
2.39448e-05
2.27329e-05
2.12344e-05
1.93971e-05
1.71684e-05
1.44995e-05
1.13541e-05
7.71815e-06
3.61342e-06
-8.88753e-07
-5.65535e-06
-1.04863e-05
-1.51214e-05
-1.92645e-05
-2.26254e-05
-2.49736e-05
-2.61887e-05
-2.6288e-05
-2.54173e-05
-2.38095e-05
-2.17271e-05
-1.94123e-05
-1.70576e-05
-1.47987e-05
-1.27195e-05
-1.0863e-05
-9.24289e-06
-7.85321e-06
-6.67627e-06
-5.68855e-06
-4.86465e-06
-4.1798e-06
-3.61123e-06
-3.13884e-06
-2.74538e-06
-2.41632e-06
-2.13963e-06
-1.90545e-06
-1.70579e-06
-1.53418e-06
-1.38543e-06
-1.25539e-06
-1.14073e-06
-1.03879e-06
-9.47453e-07
-8.65007e-07
-7.90088e-07
-7.21593e-07
-6.58629e-07
-6.0047e-07
-5.46519e-07
-4.96282e-07
-4.4935e-07
-4.05375e-07
-3.64058e-07
-3.25141e-07
-2.8839e-07