# Force       
# CofR        : (0.000000e+00 0.000000e+00 0.000000e+00)
#
# Time        	total_x total_y total_z	pressure_x pressure_y pressure_z	viscous_x viscous_y viscous_z
1              1.655784e+00 1.237168e-01 4.829877e+00 1.524803e+00 1.235795e-01 4.829009e+00 1.309805e-01 1.372398e-04 8.680255e-04
2              2.112924e+00 1.583890e-01 6.473206e+00 1.987965e+00 1.583919e-01 6.479338e+00 1.249589e-01 -2.946697e-06 -6.132115e-03
3              1.975370e+00 1.447800e-01 6.068243e+00 1.854741e+00 1.449351e-01 6.081325e+00 1.206294e-01 -1.551032e-04 -1.308207e-02
4              1.501871e+00 1.052368e-01 4.449284e+00 1.384468e+00 1.055063e-01 4.467263e+00 1.174024e-01 -2.695232e-04 -1.797852e-02
5              9.093770e-01 5.743772e-02 2.389018e+00 7.941998e-01 5.777054e-02 2.409183e+00 1.151772e-01 -3.328269e-04 -2.016515e-02
6              3.652563e-01 1.472174e-02 5.002937e-01 2.514882e-01 1.507159e-02 5.201413e-01 1.137681e-01 -3.498483e-04 -1.984763e-02
7              -2.652287e-02 -1.470420e-02 -8.312475e-01 -1.394652e-01 -1.436596e-02 -8.134919e-01 1.129423e-01 -3.382390e-04 -1.775560e-02
8              -2.106889e-01 -2.714756e-02 -1.401479e+00 -3.231264e-01 -2.683493e-02 -1.386664e+00 1.124375e-01 -3.126276e-04 -1.481503e-02
9              -2.381384e-01 -2.687344e-02 -1.404938e+00 -3.501702e-01 -2.659043e-02 -1.393046e+00 1.120318e-01 -2.830134e-04 -1.189214e-02
10             -1.613791e-01 -1.804993e-02 -1.032266e+00 -2.729150e-01 -1.779656e-02 -1.022679e+00 1.115359e-01 -2.533696e-04 -9.586752e-03
11             -2.612999e-02 -4.692446e-03 -4.532005e-01 -1.369843e-01 -4.464426e-03 -4.450043e-01 1.108543e-01 -2.280196e-04 -8.196190e-03
12             1.212013e-01 8.927217e-03 1.525861e-01 1.124241e-02 9.133160e-03 1.603248e-01 1.099589e-01 -2.059432e-04 -7.738695e-03
13             2.453728e-01 1.952975e-02 6.480635e-01 1.364695e-01 1.971480e-02 6.560789e-01 1.089033e-01 -1.850491e-04 -8.015449e-03
14             3.266579e-01 2.535633e-02 9.574004e-01 2.188810e-01 2.552356e-02 9.661236e-01 1.077768e-01 -1.672307e-04 -8.723226e-03
15             3.599144e-01 2.622460e-02 1.064282e+00 2.532475e-01 2.638112e-02 1.073833e+00 1.066670e-01 -1.565224e-04 -9.550986e-03
16             3.552975e-01 2.353078e-02 1.016838e+00 2.496641e-01 2.368031e-02 1.027087e+00 1.056334e-01 -1.495315e-04 -1.024858e-02
17             3.280069e-01 1.855135e-02 8.768635e-01 2.232912e-01 1.869662e-02 8.875328e-01 1.047157e-01 -1.452701e-04 -1.066938e-02
18             2.901377e-01 1.274246e-02 6.959281e-01 1.862131e-01 1.288487e-02 7.067034e-01 1.039246e-01 -1.424045e-04 -1.077536e-02
19             2.529551e-01 7.546187e-03 5.233197e-01 1.497068e-01 7.686438e-03 5.339277e-01 1.032483e-01 -1.402504e-04 -1.060798e-02
20             2.242613e-01 3.951661e-03 3.934084e-01 1.216006e-01 4.090308e-03 4.036681e-01 1.026608e-01 -1.386473e-04 -1.025977e-02
21             2.075971e-01 2.336688e-03 3.217552e-01 1.054645e-01 2.474108e-03 3.315894e-01 1.021325e-01 -1.374199e-04 -9.834176e-03
22             2.024461e-01 2.445439e-03 3.052884e-01 1.008089e-01 2.582550e-03 3.147135e-01 1.016372e-01 -1.371112e-04 -9.425133e-03
23             2.050923e-01 3.666673e-03 3.260432e-01 1.039353e-01 3.804569e-03 3.351376e-01 1.011571e-01 -1.378963e-04 -9.094373e-03
24             2.118956e-01 5.449028e-03 3.673638e-01 1.112143e-01 5.588481e-03 3.762337e-01 1.006813e-01 -1.394529e-04 -8.869834e-03
25             2.197240e-01 7.209542e-03 4.144905e-01 1.195173e-01 7.351117e-03 4.232375e-01 1.002067e-01 -1.415748e-04 -8.747023e-03
26             2.261241e-01 8.464305e-03 4.552051e-01 1.263870e-01 8.608116e-03 4.639065e-01 9.973709e-02 -1.438111e-04 -8.701362e-03
27             2.298700e-01 8.981146e-03 4.822770e-01 1.305671e-01 9.126962e-03 4.909759e-01 9.930293e-02 -1.458154e-04 -8.698904e-03
28             2.306356e-01 8.735726e-03 4.936305e-01 1.317479e-01 8.883246e-03 5.023389e-01 9.888769e-02 -1.475199e-04 -8.708393e-03
29             2.290052e-01 7.904675e-03 4.918734e-01 1.305100e-01 8.053502e-03 5.005783e-01 9.849524e-02 -1.488270e-04 -8.704911e-03
30             2.258807e-01 6.687923e-03 4.815234e-01 1.277532e-01 6.837729e-03 4.901980e-01 9.812743e-02 -1.498062e-04 -8.674564e-03
31             2.220920e-01 5.284681e-03 4.665065e-01 1.243074e-01 5.435378e-03 4.751209e-01 9.778465e-02 -1.506965e-04 -8.614371e-03
32             2.183955e-01 3.925327e-03 4.505072e-01 1.209301e-01 4.077104e-03 4.590366e-01 9.746538e-02 -1.517768e-04 -8.529304e-03
33             2.153350e-01 2.798153e-03 4.364699e-01 1.181678e-01 2.951529e-03 4.448991e-01 9.716725e-02 -1.533763e-04 -8.429235e-03
34             2.131619e-01 2.001242e-03 4.260661e-01 1.162742e-01 2.156392e-03 4.343909e-01 9.688766e-02 -1.551506e-04 -8.324769e-03
35             2.118534e-01 1.536513e-03 4.196257e-01 1.152305e-01 1.694399e-03 4.278512e-01 9.662287e-02 -1.578855e-04 -8.225463e-03
36             2.111314e-01 1.317750e-03 4.163332e-01 1.147703e-01 1.478810e-03 4.244704e-01 9.636111e-02 -1.610606e-04 -8.137238e-03
37             2.107732e-01 1.253705e-03 4.151083e-01 1.146612e-01 1.418711e-03 4.231702e-01 9.611199e-02 -1.650057e-04 -8.061981e-03
38             2.105619e-01 1.250609e-03 4.148378e-01 1.146869e-01 1.419666e-03 4.228367e-01 9.587506e-02 -1.690570e-04 -7.998827e-03
39             2.103337e-01 1.230817e-03 4.146103e-01 1.146839e-01 1.404327e-03 4.225559e-01 9.564974e-02 -1.735102e-04 -7.945532e-03
40             2.099965e-01 1.144306e-03 4.138411e-01 1.145603e-01 1.321987e-03 4.217396e-01 9.543623e-02 -1.776810e-04 -7.898520e-03
41             2.095224e-01 9.717197e-04 4.122853e-01 1.142882e-01 1.153642e-03 4.201400e-01 9.523424e-02 -1.819218e-04 -7.854726e-03
42             2.089331e-01 7.192781e-04 4.099719e-01 1.138889e-01 9.050250e-04 4.177833e-01 9.504418e-02 -1.857470e-04 -7.811453e-03
43             2.082772e-01 4.106755e-04 4.071164e-01 1.134116e-01 6.002715e-04 4.148839e-01 9.486558e-02 -1.895960e-04 -7.767427e-03
44             2.076644e-01 8.612418e-05 4.041373e-01 1.129600e-01 2.791760e-04 4.118594e-01 9.470442e-02 -1.930518e-04 -7.722032e-03
45             2.071309e-01 -2.372421e-04 4.014304e-01 1.125780e-01 -4.108935e-05 4.091067e-01 9.455299e-02 -1.961527e-04 -7.676241e-03
46             2.065945e-01 -5.212477e-04 3.987806e-01 1.121887e-01 -3.222255e-04 4.064171e-01 9.440577e-02 -1.990222e-04 -7.636565e-03
47             2.060835e-01 -7.536751e-04 3.963138e-01 1.118158e-01 -5.515561e-04 4.039113e-01 9.426768e-02 -2.021190e-04 -7.597540e-03
48             2.056111e-01 -9.348715e-04 3.940735e-01 1.114726e-01 -7.299924e-04 4.016328e-01 9.413849e-02 -2.048791e-04 -7.559296e-03
49             2.051792e-01 -1.072370e-03 3.920510e-01 1.111621e-01 -8.643855e-04 3.995736e-01 9.401702e-02 -2.079845e-04 -7.522599e-03
50             2.047848e-01 -1.177496e-03 3.901950e-01 1.108816e-01 -9.667794e-04 3.976823e-01 9.390325e-02 -2.107165e-04 -7.487340e-03
51             2.044270e-01 -1.260427e-03 3.884967e-01 1.106309e-01 -1.046557e-03 3.959509e-01 9.379604e-02 -2.138696e-04 -7.454155e-03
52             2.041153e-01 -1.329877e-03 3.870051e-01 1.104196e-01 -1.113350e-03 3.944276e-01 9.369570e-02 -2.165272e-04 -7.422462e-03
53             2.038477e-01 -1.393034e-03 3.857261e-01 1.102466e-01 -1.173488e-03 3.931189e-01 9.360108e-02 -2.195460e-04 -7.392805e-03
54             2.036139e-01 -1.454883e-03 3.845870e-01 1.101011e-01 -1.232867e-03 3.919512e-01 9.351278e-02 -2.220162e-04 -7.364249e-03
55             2.033956e-01 -1.517316e-03 3.834916e-01 1.099660e-01 -1.292553e-03 3.908290e-01 9.342961e-02 -2.247632e-04 -7.337394e-03
56             2.031688e-01 -1.579896e-03 3.823696e-01 1.098308e-01 -1.352826e-03 3.896793e-01 9.333800e-02 -2.270695e-04 -7.309683e-03
57             2.029392e-01 -1.640841e-03 3.811821e-01 1.096867e-01 -1.411319e-03 3.884655e-01 9.325252e-02 -2.295224e-04 -7.283383e-03
58             2.027071e-01 -1.697643e-03 3.799236e-01 1.095332e-01 -1.466099e-03 3.871814e-01 9.317381e-02 -2.315436e-04 -7.257797e-03
59             2.024951e-01 -1.749089e-03 3.786751e-01 1.093925e-01 -1.515452e-03 3.859085e-01 9.310261e-02 -2.336369e-04 -7.233409e-03
60             2.022763e-01 -1.791084e-03 3.773644e-01 1.092405e-01 -1.555694e-03 3.845743e-01 9.303582e-02 -2.353900e-04 -7.209926e-03
61             2.020570e-01 -1.822428e-03 3.760260e-01 1.090827e-01 -1.585292e-03 3.832136e-01 9.297436e-02 -2.371365e-04 -7.187560e-03
62             2.018476e-01 -1.843079e-03 3.747157e-01 1.089293e-01 -1.604540e-03 3.818816e-01 9.291838e-02 -2.385384e-04 -7.165905e-03
63             2.016574e-01 -1.854236e-03 3.734953e-01 1.087903e-01 -1.614379e-03 3.806406e-01 9.286711e-02 -2.398567e-04 -7.145355e-03
64             2.014923e-01 -1.857681e-03 3.723968e-01 1.086718e-01 -1.616758e-03 3.795223e-01 9.282047e-02 -2.409228e-04 -7.125543e-03
65             2.013497e-01 -1.855152e-03 3.714102e-01 1.085719e-01 -1.613274e-03 3.785169e-01 9.277787e-02 -2.418784e-04 -7.106757e-03
66             2.012246e-01 -1.848009e-03 3.705012e-01 1.084854e-01 -1.605364e-03 3.775899e-01 9.273921e-02 -2.426450e-04 -7.088719e-03
67             2.011102e-01 -1.837232e-03 3.696348e-01 1.084062e-01 -1.593932e-03 3.767065e-01 9.270395e-02 -2.432992e-04 -7.071658e-03
68             2.010021e-01 -1.823654e-03 3.687860e-01 1.083301e-01 -1.579856e-03 3.758413e-01 9.267201e-02 -2.437982e-04 -7.055342e-03
69             2.008969e-01 -1.807867e-03 3.679404e-01 1.082540e-01 -1.563688e-03 3.749803e-01 9.264295e-02 -2.441789e-04 -7.039941e-03
70             2.007930e-01 -1.790353e-03 3.670921e-01 1.081763e-01 -1.545929e-03 3.741173e-01 9.261667e-02 -2.444244e-04 -7.025233e-03
71             2.006893e-01 -1.771372e-03 3.662410e-01 1.080964e-01 -1.526812e-03 3.732523e-01 9.259285e-02 -2.445599e-04 -7.011328e-03
72             2.005862e-01 -1.751161e-03 3.653915e-01 1.080149e-01 -1.506576e-03 3.723896e-01 9.257136e-02 -2.445848e-04 -6.998058e-03
73             2.004848e-01 -1.729962e-03 3.645541e-01 1.079329e-01 -1.485446e-03 3.715396e-01 9.255191e-02 -2.445165e-04 -6.985480e-03
74             2.003871e-01 -1.708187e-03 3.637446e-01 1.078527e-01 -1.463837e-03 3.707181e-01 9.253438e-02 -2.443503e-04 -6.973503e-03
75             2.002954e-01 -1.686250e-03 3.629785e-01 1.077768e-01 -1.442145e-03 3.699407e-01 9.251855e-02 -2.441058e-04 -6.962125e-03
76             2.002104e-01 -1.664403e-03 3.622625e-01 1.077061e-01 -1.420618e-03 3.692138e-01 9.250429e-02 -2.437854e-04 -6.951289e-03
77             2.001314e-01 -1.642621e-03 3.615921e-01 1.076400e-01 -1.399221e-03 3.685331e-01 9.249144e-02 -2.434005e-04 -6.940993e-03
78             2.000566e-01 -1.620784e-03 3.609560e-01 1.075767e-01 -1.377837e-03 3.678872e-01 9.247986e-02 -2.429478e-04 -6.931200e-03
79             1.999839e-01 -1.598814e-03 3.603425e-01 1.075145e-01 -1.356374e-03 3.672644e-01 9.246944e-02 -2.424398e-04 -6.921918e-03
80             1.999123e-01 -1.576777e-03 3.597433e-01 1.074522e-01 -1.334903e-03 3.666564e-01 9.246007e-02 -2.418739e-04 -6.913097e-03
81             1.998407e-01 -1.554828e-03 3.591542e-01 1.073891e-01 -1.313559e-03 3.660589e-01 9.245162e-02 -2.412692e-04 -6.904753e-03
82             1.997691e-01 -1.533211e-03 3.585742e-01 1.073251e-01 -1.292589e-03 3.654710e-01 9.244402e-02 -2.406213e-04 -6.896827e-03
83             1.996974e-01 -1.512124e-03 3.580049e-01 1.072602e-01 -1.272173e-03 3.648942e-01 9.243716e-02 -2.399502e-04 -6.889330e-03
84             1.996261e-01 -1.491766e-03 3.574487e-01 1.071951e-01 -1.252513e-03 3.643309e-01 9.243098e-02 -2.392526e-04 -6.882212e-03
85             1.995555e-01 -1.472274e-03 3.569089e-01 1.071301e-01 -1.233733e-03 3.637844e-01 9.242538e-02 -2.385408e-04 -6.875474e-03
86             1.994863e-01 -1.453775e-03 3.563889e-01 1.070660e-01 -1.215960e-03 3.632580e-01 9.242033e-02 -2.378143e-04 -6.869083e-03
87             1.994191e-01 -1.436353e-03 3.558926e-01 1.070034e-01 -1.199269e-03 3.627556e-01 9.241573e-02 -2.370838e-04 -6.863035e-03
88             1.993545e-01 -1.420068e-03 3.554228e-01 1.069429e-01 -1.183721e-03 3.622801e-01 9.241156e-02 -2.363478e-04 -6.857297e-03
89             1.992929e-01 -1.404951e-03 3.549812e-01 1.068851e-01 -1.169338e-03 3.618331e-01 9.240776e-02 -2.356133e-04 -6.851870e-03
90             1.992347e-01 -1.390971e-03 3.545663e-01 1.068300e-01 -1.156094e-03 3.614131e-01 9.240472e-02 -2.348769e-04 -6.846799e-03
91             1.991789e-01 -1.378022e-03 3.541752e-01 1.067770e-01 -1.143872e-03 3.610172e-01 9.240192e-02 -2.341496e-04 -6.841998e-03
92             1.991250e-01 -1.366005e-03 3.538037e-01 1.067257e-01 -1.132574e-03 3.606411e-01 9.239932e-02 -2.334307e-04 -6.837441e-03
93             1.990723e-01 -1.354834e-03 3.534481e-01 1.066754e-01 -1.122108e-03 3.602812e-01 9.239690e-02 -2.327262e-04 -6.833130e-03
94             1.990205e-01 -1.344474e-03 3.531059e-01 1.066259e-01 -1.112440e-03 3.599349e-01 9.239463e-02 -2.320344e-04 -6.829045e-03
95             1.989695e-01 -1.334904e-03 3.527758e-01 1.065770e-01 -1.103543e-03 3.596009e-01 9.239251e-02 -2.313605e-04 -6.825187e-03
96             1.989193e-01 -1.326123e-03 3.524574e-01 1.065288e-01 -1.095418e-03 3.592790e-01 9.239051e-02 -2.307051e-04 -6.821536e-03
97             1.988700e-01 -1.318129e-03 3.521512e-01 1.064814e-01 -1.088056e-03 3.589693e-01 9.238863e-02 -2.300725e-04 -6.818093e-03
98             1.988219e-01 -1.310911e-03 3.518576e-01 1.064351e-01 -1.081449e-03 3.586725e-01 9.238686e-02 -2.294614e-04 -6.814846e-03
99             1.987752e-01 -1.304448e-03 3.515772e-01 1.063901e-01 -1.075575e-03 3.583890e-01 9.238518e-02 -2.288736e-04 -6.811791e-03
100            1.987302e-01 -1.298722e-03 3.513106e-01 1.063466e-01 -1.070412e-03 3.581195e-01 9.238359e-02 -2.283100e-04 -6.808918e-03
101            1.986870e-01 -1.293705e-03 3.510585e-01 1.063049e-01 -1.065934e-03 3.578647e-01 9.238208e-02 -2.277719e-04 -6.806221e-03
102            1.986459e-01 -1.289367e-03 3.508217e-01 1.062652e-01 -1.062107e-03 3.576254e-01 9.238065e-02 -2.272601e-04 -6.803692e-03
103            1.986071e-01 -1.285665e-03 3.506008e-01 1.062278e-01 -1.058891e-03 3.574021e-01 9.237929e-02 -2.267742e-04 -6.801326e-03
104            1.985706e-01 -1.282543e-03 3.503955e-01 1.061926e-01 -1.056230e-03 3.571946e-01 9.237800e-02 -2.263134e-04 -6.799116e-03
105            1.985363e-01 -1.279936e-03 3.502046e-01 1.061596e-01 -1.054059e-03 3.570017e-01 9.237676e-02 -2.258778e-04 -6.797055e-03
106            1.985039e-01 -1.277784e-03 3.500262e-01 1.061283e-01 -1.052319e-03 3.568213e-01 9.237559e-02 -2.254651e-04 -6.795135e-03
107            1.984731e-01 -1.276034e-03 3.498582e-01 1.060986e-01 -1.050959e-03 3.566516e-01 9.237446e-02 -2.250750e-04 -6.793352e-03
108            1.984436e-01 -1.274650e-03 3.496992e-01 1.060702e-01 -1.049943e-03 3.564909e-01 9.237338e-02 -2.247075e-04 -6.791702e-03
109            1.984154e-01 -1.273609e-03 3.495482e-01 1.060430e-01 -1.049246e-03 3.563384e-01 9.237235e-02 -2.243628e-04 -6.790179e-03
110            1.983883e-01 -1.272893e-03 3.494049e-01 1.060169e-01 -1.048852e-03 3.561937e-01 9.237136e-02 -2.240407e-04 -6.788777e-03
111            1.983625e-01 -1.272489e-03 3.492691e-01 1.059920e-01 -1.048748e-03 3.560566e-01 9.237042e-02 -2.237412e-04 -6.787491e-03
112            1.983379e-01 -1.272383e-03 3.491411e-01 1.059684e-01 -1.048919e-03 3.559274e-01 9.236950e-02 -2.234642e-04 -6.786316e-03
113            1.983146e-01 -1.272555e-03 3.490207e-01 1.059460e-01 -1.049346e-03 3.558059e-01 9.236863e-02 -2.232092e-04 -6.785246e-03
114            1.982927e-01 -1.272984e-03 3.489081e-01 1.059249e-01 -1.050008e-03 3.556924e-01 9.236778e-02 -2.229758e-04 -6.784277e-03
115            1.982723e-01 -1.273643e-03 3.488037e-01 1.059053e-01 -1.050880e-03 3.555871e-01 9.236697e-02 -2.227631e-04 -6.783405e-03
116            1.982534e-01 -1.274501e-03 3.487076e-01 1.058873e-01 -1.051930e-03 3.554902e-01 9.236617e-02 -2.225709e-04 -6.782627e-03
117            1.982362e-01 -1.275517e-03 3.486200e-01 1.058708e-01 -1.053119e-03 3.554019e-01 9.236540e-02 -2.223988e-04 -6.781937e-03
118            1.982205e-01 -1.276647e-03 3.485407e-01 1.058559e-01 -1.054401e-03 3.553221e-01 9.236464e-02 -2.222457e-04 -6.781334e-03
119            1.982065e-01 -1.277845e-03 3.484694e-01 1.058426e-01 -1.055735e-03 3.552502e-01 9.236389e-02 -2.221098e-04 -6.780816e-03
120            1.981940e-01 -1.279071e-03 3.484053e-01 1.058308e-01 -1.057080e-03 3.551856e-01 9.236314e-02 -2.219908e-04 -6.780387e-03
121            1.981829e-01 -1.280279e-03 3.483480e-01 1.058206e-01 -1.058390e-03 3.551281e-01 9.236237e-02 -2.218891e-04 -6.780059e-03
122            1.981734e-01 -1.281384e-03 3.482976e-01 1.058119e-01 -1.059578e-03 3.550775e-01 9.236149e-02 -2.218064e-04 -6.779872e-03
123            1.981653e-01 -1.282176e-03 3.482550e-01 1.058050e-01 -1.060416e-03 3.550349e-01 9.236026e-02 -2.217601e-04 -6.779908e-03
124            1.981587e-01 -1.281731e-03 3.482297e-01 1.058018e-01 -1.059854e-03 3.550098e-01 9.235687e-02 -2.218773e-04 -6.780166e-03
125            1.981575e-01 -1.280773e-03 3.482123e-01 1.058027e-01 -1.058792e-03 3.549919e-01 9.235476e-02 -2.219815e-04 -6.779554e-03
126            1.981628e-01 -1.279313e-03 3.482036e-01 1.058087e-01 -1.057327e-03 3.549830e-01 9.235410e-02 -2.219860e-04 -6.779358e-03
127            1.981719e-01 -1.277528e-03 3.482034e-01 1.058182e-01 -1.055526e-03 3.549828e-01 9.235364e-02 -2.220020e-04 -6.779414e-03
128            1.981840e-01 -1.275602e-03 3.482112e-01 1.058308e-01 -1.053570e-03 3.549907e-01 9.235320e-02 -2.220323e-04 -6.779556e-03
129            1.981977e-01 -1.273791e-03 3.482246e-01 1.058451e-01 -1.051718e-03 3.550043e-01 9.235266e-02 -2.220723e-04 -6.779718e-03
130            1.982132e-01 -1.272146e-03 3.482447e-01 1.058611e-01 -1.050030e-03 3.550246e-01 9.235213e-02 -2.221156e-04 -6.779883e-03
131            1.982306e-01 -1.270671e-03 3.482725e-01 1.058790e-01 -1.048504e-03 3.550526e-01 9.235162e-02 -2.221668e-04 -6.780045e-03
132            1.982502e-01 -1.269350e-03 3.483086e-01 1.058991e-01 -1.047128e-03 3.550888e-01 9.235112e-02 -2.222216e-04 -6.780197e-03
133            1.982721e-01 -1.268208e-03 3.483531e-01 1.059215e-01 -1.045931e-03 3.551334e-01 9.235061e-02 -2.222769e-04 -6.780334e-03
134            1.982964e-01 -1.267299e-03 3.484054e-01 1.059463e-01 -1.044967e-03 3.551859e-01 9.235012e-02 -2.223319e-04 -6.780453e-03
135            1.983231e-01 -1.266683e-03 3.484647e-01 1.059734e-01 -1.044294e-03 3.552453e-01 9.234965e-02 -2.223888e-04 -6.780548e-03
136            1.983517e-01 -1.266408e-03 3.485299e-01 1.060025e-01 -1.043961e-03 3.553105e-01 9.234921e-02 -2.224464e-04 -6.780622e-03
137            1.983819e-01 -1.266512e-03 3.485998e-01 1.060331e-01 -1.044009e-03 3.553804e-01 9.234879e-02 -2.225034e-04 -6.780681e-03
138            1.984131e-01 -1.267025e-03 3.486731e-01 1.060647e-01 -1.044467e-03 3.554538e-01 9.234839e-02 -2.225580e-04 -6.780728e-03
139            1.984460e-01 -1.267799e-03 3.487479e-01 1.060980e-01 -1.045196e-03 3.555287e-01 9.234806e-02 -2.226029e-04 -6.780787e-03
140            1.984797e-01 -1.268969e-03 3.488237e-01 1.061320e-01 -1.046325e-03 3.556045e-01 9.234773e-02 -2.226432e-04 -6.780848e-03
141            1.985131e-01 -1.270639e-03 3.489007e-01 1.061657e-01 -1.047960e-03 3.556816e-01 9.234738e-02 -2.226789e-04 -6.780902e-03
142            1.985464e-01 -1.272874e-03 3.489767e-01 1.061993e-01 -1.050167e-03 3.557577e-01 9.234709e-02 -2.227079e-04 -6.780951e-03
143            1.985789e-01 -1.275686e-03 3.490526e-01 1.062322e-01 -1.052955e-03 3.558336e-01 9.234678e-02 -2.227309e-04 -6.780994e-03
144            1.986108e-01 -1.279042e-03 3.491276e-01 1.062643e-01 -1.056297e-03 3.559086e-01 9.234651e-02 -2.227448e-04 -6.781030e-03
145            1.986419e-01 -1.282911e-03 3.492008e-01 1.062957e-01 -1.060160e-03 3.559819e-01 9.234627e-02 -2.227509e-04 -6.781061e-03
146            1.986728e-01 -1.287454e-03 3.492723e-01 1.063267e-01 -1.064700e-03 3.560534e-01 9.234606e-02 -2.227532e-04 -6.781094e-03
147            1.987027e-01 -1.292278e-03 3.493407e-01 1.063568e-01 -1.069537e-03 3.561219e-01 9.234587e-02 -2.227410e-04 -6.781132e-03
148            1.987315e-01 -1.297365e-03 3.494057e-01 1.063858e-01 -1.074640e-03 3.561869e-01 9.234571e-02 -2.227252e-04 -6.781172e-03
149            1.987592e-01 -1.302701e-03 3.494670e-01 1.064136e-01 -1.079997e-03 3.562482e-01 9.234556e-02 -2.227043e-04 -6.781209e-03
150            1.987855e-01 -1.308324e-03 3.495249e-01 1.064401e-01 -1.085646e-03 3.563061e-01 9.234544e-02 -2.226782e-04 -6.781240e-03
151            1.988105e-01 -1.314174e-03 3.495792e-01 1.064651e-01 -1.091528e-03 3.563604e-01 9.234533e-02 -2.226465e-04 -6.781272e-03
152            1.988339e-01 -1.320217e-03 3.496299e-01 1.064886e-01 -1.097606e-03 3.564112e-01 9.234524e-02 -2.226109e-04 -6.781306e-03
153            1.988557e-01 -1.326439e-03 3.496773e-01 1.065105e-01 -1.103865e-03 3.564587e-01 9.234517e-02 -2.225735e-04 -6.781340e-03
154            1.988683e-01 -1.330531e-03 3.497035e-01 1.065232e-01 -1.107998e-03 3.564849e-01 9.234511e-02 -2.225332e-04 -6.781373e-03
155            1.988874e-01 -1.337299e-03 3.497514e-01 1.065423e-01 -1.114830e-03 3.565329e-01 9.234503e-02 -2.224690e-04 -6.781414e-03
156            1.989052e-01 -1.344409e-03 3.497959e-01 1.065603e-01 -1.121965e-03 3.565773e-01 9.234500e-02 -2.224432e-04 -6.781432e-03
157            1.989160e-01 -1.349034e-03 3.498206e-01 1.065711e-01 -1.126629e-03 3.566021e-01 9.234497e-02 -2.224048e-04 -6.781462e-03
158            1.989316e-01 -1.356706e-03 3.498643e-01 1.065867e-01 -1.134353e-03 3.566458e-01 9.234491e-02 -2.223525e-04 -6.781496e-03
159            1.989463e-01 -1.364550e-03 3.499043e-01 1.066014e-01 -1.142216e-03 3.566858e-01 9.234489e-02 -2.223341e-04 -6.781512e-03
160            1.989555e-01 -1.369579e-03 3.499266e-01 1.066106e-01 -1.147270e-03 3.567081e-01 9.234488e-02 -2.223089e-04 -6.781536e-03
161            1.989684e-01 -1.377808e-03 3.499649e-01 1.066235e-01 -1.155545e-03 3.567465e-01 9.234485e-02 -2.222628e-04 -6.781568e-03
162            1.989802e-01 -1.385895e-03 3.499988e-01 1.066354e-01 -1.163644e-03 3.567803e-01 9.234485e-02 -2.222508e-04 -6.781588e-03
163            1.989913e-01 -1.393851e-03 3.500296e-01 1.066465e-01 -1.171620e-03 3.568112e-01 9.234485e-02 -2.222311e-04 -6.781618e-03
164            1.990015e-01 -1.401505e-03 3.500569e-01 1.066566e-01 -1.179289e-03 3.568386e-01 9.234485e-02 -2.222158e-04 -6.781648e-03
165            1.990108e-01 -1.408887e-03 3.500814e-01 1.066659e-01 -1.186696e-03 3.568631e-01 9.234485e-02 -2.221915e-04 -6.781683e-03
166            1.990194e-01 -1.416072e-03 3.501035e-01 1.066745e-01 -1.193901e-03 3.568852e-01 9.234486e-02 -2.221706e-04 -6.781716e-03
167            1.990274e-01 -1.423095e-03 3.501239e-01 1.066825e-01 -1.200954e-03 3.569056e-01 9.234488e-02 -2.221405e-04 -6.781749e-03
168            1.990349e-01 -1.430010e-03 3.501427e-01 1.066900e-01 -1.207897e-03 3.569245e-01 9.234490e-02 -2.221132e-04 -6.781779e-03
169            1.990419e-01 -1.436834e-03 3.501604e-01 1.066970e-01 -1.214757e-03 3.569422e-01 9.234493e-02 -2.220775e-04 -6.781807e-03
170            1.990485e-01 -1.443594e-03 3.501771e-01 1.067036e-01 -1.221550e-03 3.569589e-01 9.234496e-02 -2.220445e-04 -6.781832e-03
171            1.990547e-01 -1.450290e-03 3.501929e-01 1.067097e-01 -1.228286e-03 3.569747e-01 9.234500e-02 -2.220041e-04 -6.781857e-03
172            1.990606e-01 -1.456929e-03 3.502079e-01 1.067155e-01 -1.234962e-03 3.569898e-01 9.234504e-02 -2.219667e-04 -6.781879e-03
173            1.990649e-01 -1.461427e-03 3.502169e-01 1.067198e-01 -1.239502e-03 3.569988e-01 9.234511e-02 -2.219248e-04 -6.781891e-03
174            1.990703e-01 -1.468578e-03 3.502323e-01 1.067251e-01 -1.246695e-03 3.570142e-01 9.234519e-02 -2.218821e-04 -6.781900e-03
175            1.990755e-01 -1.475664e-03 3.502466e-01 1.067302e-01 -1.253814e-03 3.570285e-01 9.234526e-02 -2.218498e-04 -6.781900e-03
