/*--------------------------------*- C++ -*----------------------------------*\
| =========                 |                                                 |
| \\      /  F ield         | OpenFOAM: The Open Source CFD Toolbox           |
|  \\    /   O peration     | Version:  2512                                  |
|   \\  /    A nd           | Website:  www.openfoam.com                      |
|    \\/     M anipulation  |                                                 |
\*---------------------------------------------------------------------------*/
FoamFile
{
    version     2.0;
    format      ascii;
    arch        "LSB;label=32;scalar=64";
    class       volScalarField;
    location    "100";
    object      omega;
}
// * * * * * * * * * * * * * * * * * * * * * * * * * * * * * * * * * * * * * //

dimensions      [0 0 -1 0 0 0 0];

internalField   nonuniform List<scalar> 
335663
(
8.81592
7.86075
7.08459
6.44253
5.9033
5.44453
5.04978
4.70678
4.40615
4.14062
3.90449
3.6932
3.50309
3.33117
3.17498
3.03249
2.902
2.78207
2.67148
2.5692
2.47433
2.38611
2.30387
2.22702
2.15506
2.08755
2.02408
1.9643
1.90791
1.85462
1.8042
1.7564
1.71104
1.66794
1.62693
1.58786
1.55061
1.51504
1.48104
1.44852
1.41738
1.38754
1.35892
1.33144
1.30504
1.27965
1.25522
1.2317
1.20904
1.18719
1.1661
1.14575
1.12609
1.10708
1.08871
1.07092
1.05371
1.03703
1.02087
1.0052
0.990002
0.975253
0.960933
0.947025
0.933511
0.920375
0.9076
0.895173
0.883079
0.871306
0.85984
0.84867
0.837785
0.827173
0.816826
0.806732
0.796884
0.787271
0.777887
0.768795
8.81592
7.86075
7.08459
6.44253
5.9033
5.44453
5.04978
4.70678
4.40615
4.14062
3.90449
3.6932
3.50309
3.33117
3.17498
3.03249
2.902
2.78207
2.67148
2.5692
2.47433
2.38611
2.30386
2.22702
2.15506
2.08755
2.02408
1.9643
1.90791
1.85462
1.8042
1.7564
1.71105
1.66794
1.62693
1.58786
1.55061
1.51504
1.48104
1.44852
1.41739
1.38754
1.35892
1.33144
1.30504
1.27965
1.25523
1.2317
1.20904
1.18719
1.16611
1.14575
1.12609
1.10709
1.08871
1.07092
1.05371
1.03703
1.02087
1.0052
0.990002
0.975253
0.960934
0.947026
0.933512
0.920375
0.907601
0.895174
0.88308
0.871306
0.85984
0.848671
0.837785
0.827174
0.816826
0.806733
0.796884
0.787271
0.777887
0.768795
8.81592
7.86075
7.08459
6.44253
5.9033
5.44453
5.04978
4.70678
4.40615
4.14062
3.90449
3.6932
3.50309
3.33117
3.17498
3.03249
2.902
2.78206
2.67148
2.56919
2.47433
2.38611
2.30386
2.22702
2.15506
2.08755
2.02408
1.9643
1.90791
1.85462
1.8042
1.75641
1.71105
1.66795
1.62693
1.58787
1.55061
1.51504
1.48105
1.44853
1.41739
1.38755
1.35892
1.33144
1.30504
1.27965
1.25523
1.23171
1.20904
1.18719
1.16611
1.14575
1.12609
1.10709
1.08871
1.07092
1.05371
1.03703
1.02087
1.0052
0.990003
0.975254
0.960935
0.947027
0.933513
0.920376
0.907602
0.895174
0.883081
0.871307
0.859841
0.848671
0.837786
0.827175
0.816827
0.806733
0.796885
0.787272
0.777888
0.768796
8.81592
7.86075
7.08459
6.44253
5.9033
5.44453
5.04978
4.70678
4.40615
4.14062
3.90449
3.6932
3.50309
3.33117
3.17498
3.03249
2.902
2.78206
2.67147
2.56919
2.47432
2.3861
2.30386
2.22702
2.15506
2.08755
2.02408
1.9643
1.90791
1.85463
1.8042
1.75641
1.71105
1.66795
1.62694
1.58787
1.55061
1.51504
1.48105
1.44853
1.41739
1.38755
1.35892
1.33144
1.30504
1.27966
1.25523
1.23171
1.20904
1.18719
1.16611
1.14575
1.12609
1.10709
1.08871
1.07093
1.05371
1.03703
1.02087
1.0052
0.990005
0.975255
0.960936
0.947028
0.933514
0.920377
0.907603
0.895176
0.883082
0.871308
0.859842
0.848672
0.837787
0.827176
0.816828
0.806734
0.796886
0.787273
0.777889
0.768797
8.81592
7.86075
7.08459
6.44253
5.9033
5.44452
5.04978
4.70678
4.40614
4.14062
3.90449
3.6932
3.50309
3.33116
3.17498
3.03249
2.90199
2.78206
2.67147
2.56919
2.47432
2.3861
2.30386
2.22701
2.15506
2.08754
2.02408
1.9643
1.90791
1.85463
1.8042
1.75641
1.71105
1.66795
1.62694
1.58787
1.55062
1.51505
1.48105
1.44853
1.41739
1.38755
1.35893
1.33145
1.30504
1.27966
1.25523
1.23171
1.20905
1.18719
1.16611
1.14576
1.12609
1.10709
1.08871
1.07093
1.05371
1.03703
1.02087
1.0052
0.990006
0.975257
0.960937
0.947029
0.933515
0.920379
0.907604
0.895177
0.883083
0.871309
0.859844
0.848674
0.837788
0.827177
0.816829
0.806735
0.796887
0.787274
0.77789
0.768798
8.81592
7.86075
7.08459
6.44253
5.9033
5.44452
5.04978
4.70678
4.40614
4.14062
3.90449
3.6932
3.50308
3.33116
3.17497
3.03248
2.90199
2.78205
2.67147
2.56918
2.47432
2.38609
2.30385
2.22701
2.15506
2.08754
2.02407
1.9643
1.90791
1.85463
1.8042
1.75641
1.71106
1.66795
1.62694
1.58788
1.55062
1.51505
1.48105
1.44854
1.4174
1.38755
1.35893
1.33145
1.30505
1.27966
1.25523
1.23171
1.20905
1.1872
1.16611
1.14576
1.1261
1.10709
1.08871
1.07093
1.05371
1.03704
1.02088
1.00521
0.990008
0.975259
0.960939
0.947031
0.933517
0.92038
0.907606
0.895178
0.883084
0.871311
0.859845
0.848675
0.83779
0.827178
0.81683
0.806737
0.796888
0.787275
0.777891
0.768799
8.81592
7.86075
7.08459
6.44253
5.9033
5.44452
5.04978
4.70677
4.40614
4.14062
3.90448
3.69319
3.50308
3.33116
3.17497
3.03248
2.90198
2.78205
2.67146
2.56918
2.47431
2.38609
2.30385
2.22701
2.15505
2.08754
2.02407
1.9643
1.90791
1.85463
1.80421
1.75642
1.71106
1.66796
1.62695
1.58788
1.55062
1.51505
1.48106
1.44854
1.4174
1.38756
1.35893
1.33145
1.30505
1.27966
1.25524
1.23172
1.20905
1.1872
1.16612
1.14576
1.1261
1.10709
1.08871
1.07093
1.05371
1.03704
1.02088
1.00521
0.99001
0.97526
0.960941
0.947033
0.933518
0.920382
0.907607
0.89518
0.883086
0.871312
0.859846
0.848676
0.837791
0.82718
0.816832
0.806738
0.796889
0.787277
0.777892
0.768801
8.81592
7.86075
7.08459
6.44253
5.9033
5.44452
5.04978
4.70677
4.40614
4.14061
3.90448
3.69319
3.50308
3.33115
3.17497
3.03247
2.90198
2.78204
2.67145
2.56917
2.4743
2.38608
2.30384
2.227
2.15505
2.08754
2.02407
1.9643
1.90791
1.85463
1.80421
1.75642
1.71106
1.66796
1.62695
1.58789
1.55063
1.51506
1.48106
1.44854
1.4174
1.38756
1.35894
1.33146
1.30505
1.27967
1.25524
1.23172
1.20905
1.1872
1.16612
1.14576
1.1261
1.1071
1.08872
1.07093
1.05372
1.03704
1.02088
1.00521
0.990012
0.975262
0.960943
0.947035
0.93352
0.920384
0.907609
0.895182
0.883088
0.871314
0.859848
0.848678
0.837793
0.827181
0.816833
0.80674
0.796891
0.787278
0.777894
0.768802
8.81592
7.86075
7.08459
6.44253
5.9033
5.44452
5.04978
4.70677
4.40614
4.14061
3.90448
3.69319
3.50307
3.33115
3.17496
3.03247
2.90197
2.78204
2.67145
2.56916
2.4743
2.38608
2.30384
2.227
2.15504
2.08753
2.02407
1.9643
1.90791
1.85463
1.80421
1.75642
1.71107
1.66797
1.62696
1.58789
1.55063
1.51506
1.48107
1.44855
1.41741
1.38757
1.35894
1.33146
1.30506
1.27967
1.25524
1.23172
1.20906
1.1872
1.16612
1.14577
1.1261
1.1071
1.08872
1.07094
1.05372
1.03704
1.02088
1.00521
0.990014
0.975264
0.960945
0.947037
0.933522
0.920386
0.907611
0.895183
0.88309
0.871316
0.85985
0.84868
0.837794
0.827183
0.816835
0.806741
0.796892
0.78728
0.777895
0.768803
8.81592
7.86075
7.08459
6.44253
5.9033
5.44452
5.04977
4.70677
4.40614
4.14061
3.90448
3.69318
3.50307
3.33115
3.17496
3.03246
2.90197
2.78203
2.67144
2.56916
2.47429
2.38607
2.30383
2.22699
2.15504
2.08753
2.02406
1.9643
1.90791
1.85463
1.80421
1.75643
1.71107
1.66797
1.62696
1.5879
1.55064
1.51507
1.48107
1.44855
1.41741
1.38757
1.35894
1.33146
1.30506
1.27967
1.25525
1.23172
1.20906
1.18721
1.16612
1.14577
1.12611
1.1071
1.08872
1.07094
1.05372
1.03704
1.02088
1.00521
0.990016
0.975267
0.960947
0.947039
0.933524
0.920388
0.907613
0.895185
0.883091
0.871318
0.859852
0.848682
0.837796
0.827184
0.816837
0.806743
0.796894
0.787281
0.777897
0.768805
8.81592
7.86075
7.08459
6.44253
5.9033
5.44452
5.04977
4.70677
4.40614
4.14061
3.90447
3.69318
3.50307
3.33114
3.17495
3.03246
2.90196
2.78202
2.67143
2.56915
2.47428
2.38606
2.30382
2.22698
2.15503
2.08752
2.02406
1.96429
1.90791
1.85464
1.80422
1.75643
1.71108
1.66798
1.62697
1.5879
1.55064
1.51507
1.48108
1.44856
1.41742
1.38758
1.35895
1.33147
1.30506
1.27968
1.25525
1.23173
1.20906
1.18721
1.16613
1.14577
1.12611
1.1071
1.08872
1.07094
1.05372
1.03705
1.02089
1.00522
0.990018
0.975269
0.960949
0.947041
0.933526
0.92039
0.907615
0.895187
0.883093
0.87132
0.859853
0.848683
0.837798
0.827186
0.816838
0.806745
0.796896
0.787283
0.777899
0.768807
8.81592
7.86075
7.08459
6.44253
5.9033
5.44452
5.04977
4.70677
4.40613
4.1406
3.90447
3.69318
3.50306
3.33114
3.17495
3.03245
2.90195
2.78202
2.67143
2.56914
2.47427
2.38605
2.30382
2.22698
2.15503
2.08752
2.02406
1.96429
1.90791
1.85464
1.80422
1.75643
1.71108
1.66798
1.62697
1.58791
1.55065
1.51508
1.48108
1.44856
1.41742
1.38758
1.35895
1.33147
1.30507
1.27968
1.25525
1.23173
1.20907
1.18721
1.16613
1.14577
1.12611
1.10711
1.08873
1.07094
1.05373
1.03705
1.02089
1.00522
0.99002
0.975271
0.960951
0.947043
0.933528
0.920391
0.907617
0.895189
0.883095
0.871321
0.859855
0.848685
0.8378
0.827188
0.81684
0.806746
0.796897
0.787285
0.7779
0.768808
8.81592
7.86075
7.08459
6.44253
5.9033
5.44452
5.04977
4.70677
4.40613
4.1406
3.90447
3.69317
3.50306
3.33113
3.17494
3.03245
2.90195
2.78201
2.67142
2.56913
2.47427
2.38605
2.30381
2.22697
2.15502
2.08751
2.02405
1.96429
1.90791
1.85464
1.80422
1.75644
1.71109
1.66799
1.62698
1.58791
1.55066
1.51508
1.48109
1.44857
1.41743
1.38758
1.35896
1.33147
1.30507
1.27968
1.25526
1.23173
1.20907
1.18722
1.16613
1.14578
1.12611
1.10711
1.08873
1.07095
1.05373
1.03705
1.02089
1.00522
0.990023
0.975273
0.960953
0.947045
0.93353
0.920393
0.907619
0.895191
0.883097
0.871323
0.859857
0.848687
0.837801
0.82719
0.816842
0.806748
0.796899
0.787286
0.777902
0.76881
8.81592
7.86075
7.08459
6.44253
5.9033
5.44452
5.04977
4.70676
4.40613
4.1406
3.90446
3.69317
3.50305
3.33113
3.17494
3.03244
2.90194
2.782
2.67141
2.56913
2.47426
2.38604
2.3038
2.22696
2.15501
2.08751
2.02405
1.96429
1.90791
1.85464
1.80422
1.75644
1.71109
1.66799
1.62699
1.58792
1.55066
1.51509
1.48109
1.44857
1.41743
1.38759
1.35896
1.33148
1.30507
1.27969
1.25526
1.23174
1.20907
1.18722
1.16613
1.14578
1.12612
1.10711
1.08873
1.07095
1.05373
1.03705
1.02089
1.00522
0.990024
0.975275
0.960955
0.947047
0.933532
0.920395
0.90762
0.895193
0.883099
0.871325
0.859859
0.848688
0.837803
0.827191
0.816843
0.806749
0.796901
0.787288
0.777903
0.768811
8.81592
7.86075
7.08459
6.44253
5.9033
5.44452
5.04977
4.70676
4.40613
4.1406
3.90446
3.69317
3.50305
3.33112
3.17493
3.03244
2.90194
2.782
2.67141
2.56912
2.47425
2.38603
2.30379
2.22696
2.15501
2.0875
2.02405
1.96429
1.90791
1.85464
1.80423
1.75644
1.7111
1.668
1.62699
1.58792
1.55067
1.51509
1.4811
1.44858
1.41744
1.38759
1.35896
1.33148
1.30508
1.27969
1.25526
1.23174
1.20907
1.18722
1.16614
1.14578
1.12612
1.10711
1.08873
1.07095
1.05373
1.03706
1.02089
1.00523
0.990026
0.975277
0.960957
0.947048
0.933534
0.920397
0.907622
0.895194
0.8831
0.871326
0.85986
0.84869
0.837804
0.827193
0.816845
0.806751
0.796902
0.787289
0.777905
0.768813
8.81592
7.86075
7.08459
6.44253
5.9033
5.44452
5.04977
4.70676
4.40613
4.1406
3.90446
3.69317
3.50305
3.33112
3.17493
3.03243
2.90193
2.78199
2.6714
2.56911
2.47425
2.38603
2.30379
2.22695
2.155
2.0875
2.02405
1.96429
1.90791
1.85464
1.80423
1.75645
1.7111
1.668
1.62699
1.58793
1.55067
1.5151
1.4811
1.44858
1.41744
1.38759
1.35897
1.33148
1.30508
1.27969
1.25526
1.23174
1.20908
1.18722
1.16614
1.14578
1.12612
1.10712
1.08874
1.07095
1.05373
1.03706
1.0209
1.00523
0.990028
0.975278
0.960958
0.94705
0.933535
0.920398
0.907623
0.895196
0.883101
0.871328
0.859861
0.848691
0.837806
0.827194
0.816846
0.806752
0.796903
0.78729
0.777906
0.768814
8.81592
7.86075
7.08459
6.44253
5.9033
5.44452
5.04977
4.70676
4.40613
4.1406
3.90446
3.69316
3.50305
3.33112
3.17492
3.03243
2.90193
2.78199
2.6714
2.56911
2.47424
2.38602
2.30378
2.22695
2.155
2.0875
2.02404
1.96428
1.90791
1.85464
1.80423
1.75645
1.7111
1.668
1.627
1.58793
1.55067
1.5151
1.48111
1.44858
1.41744
1.3876
1.35897
1.33149
1.30508
1.27969
1.25527
1.23174
1.20908
1.18722
1.16614
1.14578
1.12612
1.10712
1.08874
1.07095
1.05374
1.03706
1.0209
1.00523
0.990029
0.975279
0.960959
0.947051
0.933536
0.920399
0.907624
0.895197
0.883103
0.871329
0.859862
0.848692
0.837807
0.827195
0.816847
0.806753
0.796904
0.787291
0.777907
0.768815
8.81592
7.86075
7.08459
6.44253
5.9033
5.44452
5.04977
4.70676
4.40612
4.14059
3.90446
3.69316
3.50304
3.33112
3.17492
3.03243
2.90192
2.78199
2.67139
2.56911
2.47424
2.38602
2.30378
2.22694
2.155
2.08749
2.02404
1.96428
1.90791
1.85464
1.80423
1.75645
1.7111
1.66801
1.627
1.58793
1.55068
1.5151
1.48111
1.44858
1.41744
1.3876
1.35897
1.33149
1.30508
1.2797
1.25527
1.23174
1.20908
1.18723
1.16614
1.14579
1.12612
1.10712
1.08874
1.07095
1.05374
1.03706
1.0209
1.00523
0.99003
0.97528
0.96096
0.947052
0.933537
0.9204
0.907625
0.895197
0.883103
0.871329
0.859863
0.848693
0.837807
0.827196
0.816848
0.806754
0.796905
0.787292
0.777907
0.768815
8.81592
7.86075
7.08459
6.44253
5.9033
5.44452
5.04977
4.70676
4.40612
4.14059
3.90446
3.69316
3.50304
3.33111
3.17492
3.03242
2.90192
2.78198
2.67139
2.5691
2.47423
2.38601
2.30378
2.22694
2.15499
2.08749
2.02404
1.96428
1.90791
1.85464
1.80423
1.75645
1.7111
1.66801
1.627
1.58793
1.55068
1.5151
1.48111
1.44859
1.41745
1.3876
1.35897
1.33149
1.30508
1.2797
1.25527
1.23175
1.20908
1.18723
1.16614
1.14579
1.12612
1.10712
1.08874
1.07095
1.05374
1.03706
1.0209
1.00523
0.99003
0.97528
0.960961
0.947052
0.933537
0.9204
0.907625
0.895198
0.883104
0.87133
0.859864
0.848693
0.837808
0.827196
0.816848
0.806754
0.796905
0.787292
0.777908
0.768816
8.81592
7.86075
7.08459
6.44253
5.9033
5.44452
5.04977
4.70676
4.40612
4.14059
3.90446
3.69316
3.50304
3.33111
3.17492
3.03242
2.90192
2.78198
2.67139
2.5691
2.47423
2.38601
2.30377
2.22694
2.15499
2.08749
2.02404
1.96428
1.90791
1.85464
1.80423
1.75645
1.7111
1.66801
1.627
1.58794
1.55068
1.51511
1.48111
1.44859
1.41745
1.3876
1.35897
1.33149
1.30508
1.2797
1.25527
1.23175
1.20908
1.18723
1.16614
1.14579
1.12612
1.10712
1.08874
1.07095
1.05374
1.03706
1.0209
1.00523
0.99003
0.975281
0.960961
0.947052
0.933538
0.920401
0.907626
0.895198
0.883104
0.87133
0.859864
0.848693
0.837808
0.827196
0.816848
0.806754
0.796905
0.787292
0.777908
0.768816
8.81592
7.86075
7.08459
6.44253
5.9033
5.44452
5.04977
4.70676
4.40612
4.14059
3.90446
3.69316
3.50304
3.33111
3.17492
3.03242
2.90192
2.78198
2.67139
2.5691
2.47423
2.38601
2.30377
2.22694
2.15499
2.08749
2.02404
1.96428
1.90791
1.85464
1.80423
1.75645
1.7111
1.66801
1.627
1.58793
1.55068
1.5151
1.48111
1.44859
1.41744
1.3876
1.35897
1.33149
1.30508
1.2797
1.25527
1.23174
1.20908
1.18723
1.16614
1.14579
1.12612
1.10712
1.08874
1.07095
1.05374
1.03706
1.0209
1.00523
0.99003
0.97528
0.96096
0.947052
0.933537
0.9204
0.907625
0.895198
0.883104
0.87133
0.859864
0.848693
0.837808
0.827196
0.816848
0.806754
0.796905
0.787292
0.777908
0.768816
8.81592
7.86075
7.08459
6.44253
5.9033
5.44452
5.04977
4.70676
4.40612
4.14059
3.90446
3.69316
3.50304
3.33111
3.17492
3.03242
2.90192
2.78198
2.67139
2.5691
2.47423
2.38601
2.30377
2.22694
2.15499
2.08749
2.02404
1.96428
1.90791
1.85464
1.80423
1.75645
1.7111
1.66801
1.627
1.58793
1.55067
1.5151
1.48111
1.44858
1.41744
1.3876
1.35897
1.33149
1.30508
1.27969
1.25527
1.23174
1.20908
1.18723
1.16614
1.14579
1.12612
1.10712
1.08874
1.07095
1.05374
1.03706
1.0209
1.00523
0.990029
0.97528
0.96096
0.947051
0.933537
0.9204
0.907625
0.895197
0.883103
0.871329
0.859863
0.848693
0.837807
0.827196
0.816848
0.806754
0.796905
0.787292
0.777907
0.768815
8.81592
7.86075
7.08459
6.44253
5.9033
5.44452
5.04977
4.70676
4.40612
4.14059
3.90446
3.69316
3.50304
3.33111
3.17492
3.03242
2.90192
2.78198
2.67139
2.5691
2.47423
2.38601
2.30378
2.22694
2.15499
2.08749
2.02404
1.96428
1.90791
1.85464
1.80423
1.75645
1.7111
1.668
1.627
1.58793
1.55067
1.5151
1.4811
1.44858
1.41744
1.3876
1.35897
1.33149
1.30508
1.27969
1.25526
1.23174
1.20908
1.18722
1.16614
1.14578
1.12612
1.10712
1.08874
1.07095
1.05373
1.03706
1.0209
1.00523
0.990028
0.975279
0.960959
0.94705
0.933536
0.920399
0.907624
0.895197
0.883102
0.871329
0.859862
0.848692
0.837807
0.827195
0.816847
0.806753
0.796904
0.787291
0.777907
0.768815
8.81592
7.86075
7.08459
6.44253
5.9033
5.44452
5.04977
4.70676
4.40613
4.14059
3.90446
3.69316
3.50305
3.33112
3.17492
3.03243
2.90193
2.78199
2.67139
2.56911
2.47424
2.38602
2.30378
2.22694
2.155
2.08749
2.02404
1.96428
1.90791
1.85464
1.80423
1.75645
1.7111
1.668
1.62699
1.58793
1.55067
1.5151
1.4811
1.44858
1.41744
1.38759
1.35897
1.33148
1.30508
1.27969
1.25526
1.23174
1.20908
1.18722
1.16614
1.14578
1.12612
1.10711
1.08873
1.07095
1.05373
1.03706
1.0209
1.00523
0.990027
0.975278
0.960958
0.947049
0.933535
0.920398
0.907623
0.895195
0.883101
0.871328
0.859861
0.848691
0.837806
0.827194
0.816846
0.806752
0.796903
0.787291
0.777906
0.768814
8.81592
7.86075
7.08459
6.44253
5.9033
5.44452
5.04977
4.70676
4.40613
4.1406
3.90446
3.69317
3.50305
3.33112
3.17493
3.03243
2.90193
2.78199
2.6714
2.56911
2.47424
2.38602
2.30379
2.22695
2.155
2.0875
2.02404
1.96428
1.90791
1.85464
1.80422
1.75644
1.71109
1.668
1.62699
1.58792
1.55066
1.51509
1.4811
1.44858
1.41743
1.38759
1.35896
1.33148
1.30508
1.27969
1.25526
1.23174
1.20907
1.18722
1.16614
1.14578
1.12612
1.10711
1.08873
1.07095
1.05373
1.03705
1.02089
1.00522
0.990026
0.975276
0.960956
0.947048
0.933533
0.920396
0.907622
0.895194
0.8831
0.871326
0.85986
0.84869
0.837804
0.827193
0.816845
0.806751
0.796902
0.787289
0.777905
0.768813
8.81592
7.86075
7.08459
6.44253
5.9033
5.44452
5.04977
4.70676
4.40613
4.1406
3.90446
3.69317
3.50305
3.33112
3.17493
3.03243
2.90193
2.782
2.6714
2.56912
2.47425
2.38603
2.30379
2.22695
2.155
2.0875
2.02404
1.96428
1.90791
1.85464
1.80422
1.75644
1.71109
1.66799
1.62698
1.58792
1.55066
1.51509
1.48109
1.44857
1.41743
1.38759
1.35896
1.33148
1.30507
1.27969
1.25526
1.23174
1.20907
1.18722
1.16613
1.14578
1.12612
1.10711
1.08873
1.07095
1.05373
1.03705
1.02089
1.00522
0.990024
0.975274
0.960954
0.947046
0.933532
0.920395
0.90762
0.895193
0.883099
0.871325
0.859859
0.848689
0.837803
0.827191
0.816844
0.80675
0.796901
0.787288
0.777904
0.768812
8.81592
7.86075
7.08459
6.44253
5.9033
5.44452
5.04977
4.70676
4.40613
4.1406
3.90446
3.69317
3.50305
3.33113
3.17493
3.03244
2.90194
2.782
2.67141
2.56912
2.47426
2.38604
2.3038
2.22696
2.15501
2.0875
2.02405
1.96428
1.90791
1.85463
1.80422
1.75643
1.71108
1.66799
1.62698
1.58791
1.55065
1.51508
1.48109
1.44857
1.41743
1.38758
1.35896
1.33147
1.30507
1.27968
1.25525
1.23173
1.20907
1.18721
1.16613
1.14578
1.12611
1.10711
1.08873
1.07094
1.05373
1.03705
1.02089
1.00522
0.990022
0.975272
0.960953
0.947044
0.93353
0.920393
0.907618
0.895191
0.883097
0.871323
0.859857
0.848687
0.837801
0.82719
0.816842
0.806748
0.7969
0.787287
0.777902
0.768811
8.81592
7.86075
7.08459
6.44253
5.9033
5.44452
5.04977
4.70677
4.40613
4.1406
3.90447
3.69317
3.50306
3.33113
3.17494
3.03244
2.90195
2.78201
2.67142
2.56913
2.47426
2.38604
2.3038
2.22696
2.15502
2.08751
2.02405
1.96429
1.90791
1.85463
1.80421
1.75643
1.71108
1.66798
1.62697
1.58791
1.55065
1.51508
1.48108
1.44856
1.41742
1.38758
1.35895
1.33147
1.30507
1.27968
1.25525
1.23173
1.20906
1.18721
1.16613
1.14577
1.12611
1.10711
1.08873
1.07094
1.05372
1.03705
1.02089
1.00522
0.99002
0.97527
0.96095
0.947042
0.933528
0.920391
0.907616
0.895189
0.883095
0.871321
0.859855
0.848685
0.8378
0.827188
0.81684
0.806747
0.796898
0.787285
0.777901
0.768809
8.81592
7.86075
7.08459
6.44253
5.9033
5.44452
5.04977
4.70677
4.40613
4.1406
3.90447
3.69318
3.50306
3.33113
3.17494
3.03245
2.90195
2.78201
2.67142
2.56914
2.47427
2.38605
2.30381
2.22697
2.15502
2.08751
2.02405
1.96429
1.90791
1.85463
1.80421
1.75643
1.71107
1.66798
1.62697
1.5879
1.55064
1.51507
1.48108
1.44856
1.41742
1.38757
1.35895
1.33147
1.30506
1.27967
1.25525
1.23173
1.20906
1.18721
1.16612
1.14577
1.12611
1.1071
1.08872
1.07094
1.05372
1.03705
1.02088
1.00522
0.990017
0.975268
0.960948
0.94704
0.933526
0.920389
0.907614
0.895187
0.883093
0.871319
0.859853
0.848683
0.837798
0.827186
0.816839
0.806745
0.796896
0.787284
0.777899
0.768807
8.81592
7.86075
7.08459
6.44253
5.9033
5.44452
5.04977
4.70677
4.40613
4.14061
3.90447
3.69318
3.50306
3.33114
3.17495
3.03245
2.90196
2.78202
2.67143
2.56915
2.47428
2.38606
2.30382
2.22698
2.15503
2.08752
2.02405
1.96429
1.9079
1.85463
1.80421
1.75642
1.71107
1.66797
1.62696
1.58789
1.55064
1.51507
1.48107
1.44855
1.41741
1.38757
1.35894
1.33146
1.30506
1.27967
1.25524
1.23172
1.20906
1.18721
1.16612
1.14577
1.1261
1.1071
1.08872
1.07094
1.05372
1.03704
1.02088
1.00521
0.990015
0.975266
0.960946
0.947038
0.933524
0.920387
0.907612
0.895185
0.883091
0.871317
0.859852
0.848682
0.837796
0.827185
0.816837
0.806743
0.796895
0.787282
0.777898
0.768806
8.81592
7.86075
7.08459
6.44253
5.9033
5.44452
5.04977
4.70677
4.40614
4.14061
3.90447
3.69318
3.50307
3.33114
3.17495
3.03246
2.90196
2.78203
2.67144
2.56915
2.47428
2.38606
2.30382
2.22698
2.15503
2.08752
2.02406
1.96429
1.9079
1.85463
1.8042
1.75642
1.71106
1.66796
1.62696
1.58789
1.55063
1.51506
1.48107
1.44855
1.41741
1.38756
1.35894
1.33146
1.30505
1.27967
1.25524
1.23172
1.20905
1.1872
1.16612
1.14576
1.1261
1.1071
1.08872
1.07093
1.05372
1.03704
1.02088
1.00521
0.990013
0.975263
0.960944
0.947036
0.933521
0.920385
0.90761
0.895183
0.883089
0.871316
0.85985
0.84868
0.837794
0.827183
0.816835
0.806742
0.796893
0.78728
0.777896
0.768804
8.81592
7.86075
7.08459
6.44253
5.9033
5.44452
5.04977
4.70677
4.40614
4.14061
3.90448
3.69319
3.50307
3.33115
3.17496
3.03247
2.90197
2.78203
2.67144
2.56916
2.47429
2.38607
2.30383
2.22699
2.15504
2.08752
2.02406
1.96429
1.9079
1.85462
1.8042
1.75641
1.71106
1.66796
1.62695
1.58788
1.55063
1.51505
1.48106
1.44854
1.4174
1.38756
1.35893
1.33145
1.30505
1.27966
1.25524
1.23172
1.20905
1.1872
1.16612
1.14576
1.1261
1.10709
1.08872
1.07093
1.05371
1.03704
1.02088
1.00521
0.99001
0.975261
0.960942
0.947033
0.933519
0.920383
0.907608
0.895181
0.883087
0.871314
0.859848
0.848678
0.837793
0.827181
0.816834
0.80674
0.796891
0.787279
0.777895
0.768803
8.81592
7.86075
7.08459
6.44253
5.9033
5.44452
5.04978
4.70677
4.40614
4.14061
3.90448
3.69319
3.50307
3.33115
3.17496
3.03247
2.90197
2.78204
2.67145
2.56917
2.4743
2.38608
2.30384
2.22699
2.15504
2.08753
2.02406
1.96429
1.9079
1.85462
1.8042
1.75641
1.71106
1.66795
1.62694
1.58788
1.55062
1.51505
1.48106
1.44854
1.4174
1.38755
1.35893
1.33145
1.30505
1.27966
1.25523
1.23171
1.20905
1.1872
1.16611
1.14576
1.1261
1.10709
1.08871
1.07093
1.05371
1.03704
1.02088
1.00521
0.990008
0.975259
0.960939
0.947031
0.933517
0.920381
0.907606
0.895179
0.883085
0.871312
0.859846
0.848676
0.837791
0.82718
0.816832
0.806738
0.79689
0.787277
0.777893
0.768801
8.81592
7.86075
7.08459
6.44253
5.9033
5.44452
5.04978
4.70677
4.40614
4.14061
3.90448
3.69319
3.50308
3.33115
3.17497
3.03248
2.90198
2.78205
2.67146
2.56917
2.4743
2.38608
2.30384
2.227
2.15504
2.08753
2.02406
1.96429
1.9079
1.85462
1.8042
1.75641
1.71105
1.66795
1.62694
1.58787
1.55061
1.51504
1.48105
1.44853
1.41739
1.38755
1.35892
1.33144
1.30504
1.27966
1.25523
1.23171
1.20905
1.18719
1.16611
1.14576
1.12609
1.10709
1.08871
1.07093
1.05371
1.03703
1.02087
1.0052
0.990006
0.975257
0.960937
0.947029
0.933515
0.920379
0.907605
0.895177
0.883084
0.87131
0.859844
0.848675
0.837789
0.827178
0.81683
0.806737
0.796888
0.787276
0.777892
0.7688
8.81592
7.86075
7.08459
6.44253
5.9033
5.44452
5.04978
4.70677
4.40614
4.14062
3.90448
3.69319
3.50308
3.33116
3.17497
3.03248
2.90198
2.78205
2.67146
2.56918
2.47431
2.38609
2.30385
2.227
2.15505
2.08753
2.02407
1.96429
1.9079
1.85462
1.80419
1.7564
1.71105
1.66795
1.62693
1.58787
1.55061
1.51504
1.48105
1.44853
1.41739
1.38755
1.35892
1.33144
1.30504
1.27965
1.25523
1.23171
1.20904
1.18719
1.16611
1.14575
1.12609
1.10709
1.08871
1.07092
1.05371
1.03703
1.02087
1.0052
0.990004
0.975255
0.960936
0.947028
0.933514
0.920377
0.907603
0.895176
0.883082
0.871309
0.859843
0.848673
0.837788
0.827177
0.816829
0.806735
0.796887
0.787274
0.77789
0.768799
8.81592
7.86075
7.08459
6.44253
5.9033
5.44452
5.04978
4.70678
4.40614
4.14062
3.90449
3.6932
3.50308
3.33116
3.17497
3.03248
2.90199
2.78205
2.67146
2.56918
2.47431
2.38609
2.30385
2.22701
2.15505
2.08754
2.02407
1.96429
1.9079
1.85462
1.80419
1.7564
1.71104
1.66794
1.62693
1.58786
1.55061
1.51504
1.48104
1.44852
1.41739
1.38754
1.35892
1.33144
1.30504
1.27965
1.25522
1.2317
1.20904
1.18719
1.1661
1.14575
1.12609
1.10708
1.08871
1.07092
1.05371
1.03703
1.02087
1.0052
0.990002
0.975253
0.960934
0.947026
0.933512
0.920376
0.907601
0.895174
0.883081
0.871307
0.859842
0.848672
0.837786
0.827175
0.816828
0.806734
0.796886
0.787273
0.777889
0.768797
8.81592
7.86075
7.08459
6.44253
5.9033
5.44452
5.04978
4.70678
4.40614
4.14062
3.90449
3.6932
3.50309
3.33116
3.17498
3.03249
2.90199
2.78206
2.67147
2.56919
2.47432
2.3861
2.30385
2.22701
2.15505
2.08754
2.02407
1.96429
1.9079
1.85462
1.80419
1.7564
1.71104
1.66794
1.62693
1.58786
1.5506
1.51503
1.48104
1.44852
1.41738
1.38754
1.35892
1.33144
1.30503
1.27965
1.25522
1.2317
1.20904
1.18719
1.1661
1.14575
1.12609
1.10708
1.0887
1.07092
1.0537
1.03703
1.02087
1.0052
0.990001
0.975252
0.960933
0.947025
0.933511
0.920374
0.9076
0.895173
0.883079
0.871306
0.85984
0.848671
0.837785
0.827174
0.816827
0.806733
0.796885
0.787272
0.777888
0.768796
8.81592
7.86075
7.08459
6.44253
5.9033
5.44452
5.04978
4.70678
4.40615
4.14062
3.90449
3.6932
3.50309
3.33117
3.17498
3.03249
2.90199
2.78206
2.67147
2.56919
2.47432
2.3861
2.30386
2.22701
2.15506
2.08754
2.02407
1.96429
1.9079
1.85462
1.80419
1.7564
1.71104
1.66794
1.62692
1.58786
1.5506
1.51503
1.48104
1.44852
1.41738
1.38754
1.35891
1.33143
1.30503
1.27965
1.25522
1.2317
1.20904
1.18718
1.1661
1.14575
1.12609
1.10708
1.0887
1.07092
1.0537
1.03703
1.02087
1.0052
0.99
0.975251
0.960931
0.947024
0.93351
0.920373
0.907599
0.895172
0.883078
0.871305
0.859839
0.84867
0.837784
0.827173
0.816826
0.806732
0.796884
0.787271
0.777887
0.768796
8.81592
7.86075
7.08459
6.44253
5.9033
5.44453
5.04978
4.70678
4.40615
4.14062
3.90449
3.6932
3.50309
3.33117
3.17498
3.03249
2.902
2.78206
2.67147
2.56919
2.47432
2.3861
2.30386
2.22701
2.15506
2.08754
2.02407
1.96429
1.9079
1.85461
1.80419
1.75639
1.71104
1.66793
1.62692
1.58786
1.5506
1.51503
1.48103
1.44852
1.41738
1.38754
1.35891
1.33143
1.30503
1.27964
1.25522
1.2317
1.20903
1.18718
1.1661
1.14575
1.12608
1.10708
1.0887
1.07092
1.0537
1.03703
1.02087
1.0052
0.989999
0.97525
0.96093
0.947023
0.933509
0.920372
0.907598
0.895171
0.883078
0.871304
0.859839
0.848669
0.837784
0.827172
0.816825
0.806732
0.796883
0.787271
0.777887
0.768795
8.81592
7.86075
7.08459
6.44253
5.9033
5.44453
5.04978
4.70678
4.40615
4.14062
3.90449
3.6932
3.50309
3.33117
3.17498
3.03249
2.902
2.78206
2.67147
2.56919
2.47432
2.3861
2.30386
2.22701
2.15506
2.08754
2.02407
1.96429
1.9079
1.85461
1.80419
1.75639
1.71104
1.66793
1.62692
1.58785
1.5506
1.51503
1.48103
1.44851
1.41738
1.38753
1.35891
1.33143
1.30503
1.27964
1.25522
1.2317
1.20903
1.18718
1.1661
1.14574
1.12608
1.10708
1.0887
1.07092
1.0537
1.03703
1.02086
1.0052
0.989998
0.975249
0.96093
0.947022
0.933508
0.920372
0.907598
0.895171
0.883077
0.871304
0.859838
0.848668
0.837783
0.827172
0.816825
0.806731
0.796883
0.78727
0.777886
0.768795
8.81592
7.86075
7.08459
6.44253
5.9033
5.44453
5.04978
4.70678
4.40615
4.14062
3.90449
3.6932
3.50309
3.33117
3.17498
3.03249
2.902
2.78207
2.67148
2.5692
2.47433
2.38611
2.30387
2.22702
2.15506
2.08755
2.02408
1.9643
1.90791
1.85462
1.8042
1.7564
1.71105
1.66794
1.62693
1.58786
1.55061
1.51504
1.48104
1.44852
1.41739
1.38754
1.35892
1.33144
1.30504
1.27965
1.25523
1.2317
1.20904
1.18719
1.16611
1.14575
1.12609
1.10709
1.08871
1.07092
1.05371
1.03703
1.02087
1.0052
0.990002
0.975253
0.960934
0.947026
0.933512
0.920375
0.907601
0.895174
0.88308
0.871306
0.85984
0.848671
0.837785
0.827174
0.816826
0.806733
0.796884
0.787271
0.777887
0.768795
8.81592
7.86075
7.08459
6.44253
5.9033
5.44453
5.04978
4.70678
4.40615
4.14062
3.90449
3.6932
3.50309
3.33117
3.17498
3.03249
2.902
2.78207
2.67148
2.56919
2.47433
2.38611
2.30386
2.22702
2.15506
2.08755
2.02408
1.9643
1.90791
1.85462
1.8042
1.7564
1.71105
1.66794
1.62693
1.58787
1.55061
1.51504
1.48104
1.44853
1.41739
1.38755
1.35892
1.33144
1.30504
1.27965
1.25523
1.23171
1.20904
1.18719
1.16611
1.14575
1.12609
1.10709
1.08871
1.07092
1.05371
1.03703
1.02087
1.0052
0.990003
0.975254
0.960935
0.947026
0.933512
0.920376
0.907601
0.895174
0.88308
0.871307
0.859841
0.848671
0.837786
0.827174
0.816827
0.806733
0.796884
0.787272
0.777888
0.768796
8.81592
7.86075
7.08459
6.44253
5.9033
5.44453
5.04978
4.70678
4.40615
4.14062
3.90449
3.6932
3.50309
3.33117
3.17498
3.03249
2.902
2.78206
2.67148
2.56919
2.47433
2.3861
2.30386
2.22702
2.15506
2.08755
2.02408
1.9643
1.90791
1.85463
1.8042
1.75641
1.71105
1.66795
1.62694
1.58787
1.55061
1.51504
1.48105
1.44853
1.41739
1.38755
1.35892
1.33144
1.30504
1.27965
1.25523
1.23171
1.20904
1.18719
1.16611
1.14575
1.12609
1.10709
1.08871
1.07093
1.05371
1.03703
1.02087
1.0052
0.990004
0.975255
0.960936
0.947027
0.933513
0.920377
0.907602
0.895175
0.883081
0.871308
0.859842
0.848672
0.837787
0.827175
0.816827
0.806734
0.796885
0.787273
0.777888
0.768797
8.81592
7.86075
7.08459
6.44253
5.9033
5.44453
5.04978
4.70678
4.40615
4.14062
3.90449
3.6932
3.50309
3.33117
3.17498
3.03249
2.90199
2.78206
2.67147
2.56919
2.47432
2.3861
2.30386
2.22702
2.15506
2.08755
2.02408
1.9643
1.90791
1.85463
1.8042
1.75641
1.71105
1.66795
1.62694
1.58787
1.55061
1.51504
1.48105
1.44853
1.41739
1.38755
1.35892
1.33144
1.30504
1.27966
1.25523
1.23171
1.20905
1.18719
1.16611
1.14576
1.12609
1.10709
1.08871
1.07093
1.05371
1.03703
1.02087
1.0052
0.990006
0.975256
0.960937
0.947029
0.933515
0.920378
0.907603
0.895176
0.883082
0.871309
0.859843
0.848673
0.837788
0.827176
0.816829
0.806735
0.796886
0.787274
0.777889
0.768798
8.81592
7.86075
7.08459
6.44253
5.9033
5.44452
5.04978
4.70678
4.40614
4.14062
3.90449
3.6932
3.50309
3.33116
3.17498
3.03249
2.90199
2.78206
2.67147
2.56919
2.47432
2.3861
2.30386
2.22701
2.15506
2.08754
2.02408
1.9643
1.90791
1.85463
1.8042
1.75641
1.71106
1.66795
1.62694
1.58788
1.55062
1.51505
1.48105
1.44853
1.4174
1.38755
1.35893
1.33145
1.30505
1.27966
1.25523
1.23171
1.20905
1.1872
1.16611
1.14576
1.1261
1.10709
1.08871
1.07093
1.05371
1.03704
1.02087
1.00521
0.990007
0.975258
0.960938