/*--------------------------------*- C++ -*----------------------------------*\
| =========                 |                                                 |
| \\      /  F ield         | OpenFOAM: The Open Source CFD Toolbox           |
|  \\    /   O peration     | Version:  2512                                  |
|   \\  /    A nd           | Website:  www.openfoam.com                      |
|    \\/     M anipulation  |                                                 |
\*---------------------------------------------------------------------------*/
FoamFile
{
    version     2.0;
    format      ascii;
    arch        "LSB;label=32;scalar=64";
    class       volScalarField;
    location    "100";
    object      p;
}
// * * * * * * * * * * * * * * * * * * * * * * * * * * * * * * * * * * * * * //

dimensions      [0 2 -2 0 0 0 0];

internalField   nonuniform List<scalar> 
335663
(
9.39164e-05
9.38114e-05
9.35414e-05
9.31076e-05
9.25025e-05
9.17018e-05
9.06723e-05
8.93749e-05
8.77632e-05
8.57823e-05
8.33684e-05
8.04491e-05
7.69442e-05
7.27675e-05
6.78296e-05
6.20428e-05
5.53274e-05
4.76207e-05
3.8888e-05
2.91358e-05
1.8426e-05
6.8886e-06
-5.26781e-06
-1.77517e-05
-3.01933e-05
-4.21606e-05
-5.31891e-05
-6.28228e-05
-7.06626e-05
-7.64134e-05
-7.99211e-05
-8.11898e-05
-8.03764e-05
-7.77628e-05
-7.37126e-05
-6.86224e-05
-6.28789e-05
-5.68268e-05
-5.07504e-05
-4.4868e-05
-3.93334e-05
-3.4244e-05
-2.96507e-05
-2.55685e-05
-2.19866e-05
-1.8877e-05
-1.62011e-05
-1.39147e-05
-1.19721e-05
-1.03284e-05
-8.9412e-06
-7.77202e-06
-6.78661e-06
-5.9551e-06
-5.25174e-06
-4.65453e-06
-4.14476e-06
-3.70666e-06
-3.32713e-06
-2.99542e-06
-2.70285e-06
-2.44247e-06
-2.20874e-06
-1.99719e-06
-1.80414e-06
-1.62664e-06
-1.46226e-06
-1.30913e-06
-1.16588e-06
-1.03157e-06
-9.05602e-07
-7.87605e-07
-6.77296e-07
-5.74361e-07
-4.78339e-07
-3.88547e-07
-3.04012e-07
-2.23525e-07
-1.45108e-07
-7.35365e-08
9.39483e-05
9.3844e-05
9.35767e-05
9.31469e-05
9.25474e-05
9.17537e-05
9.07331e-05
8.94465e-05
8.78474e-05
8.5881e-05
8.34836e-05
8.05824e-05
7.70969e-05
7.294e-05
6.80215e-05
6.22521e-05
5.555e-05
4.78502e-05
3.91153e-05
2.93487e-05
1.86095e-05
7.02551e-06
-5.1956e-06
-1.77611e-05
-3.02976e-05
-4.23664e-05
-5.34941e-05
-6.32143e-05
-7.11177e-05
-7.69017e-05
-8.04082e-05
-8.16428e-05
-8.07687e-05
-7.8077e-05
-7.39414e-05
-6.87676e-05
-6.29492e-05
-5.68347e-05
-5.07103e-05
-4.47935e-05
-3.92369e-05
-3.41358e-05
-2.95387e-05
-2.54585e-05
-2.18825e-05
-1.87812e-05
-1.61147e-05
-1.38381e-05
-1.19052e-05
-1.02705e-05
-8.89156e-06
-7.72977e-06
-6.75087e-06
-5.92503e-06
-5.22659e-06
-4.63359e-06
-4.1274e-06
-3.6923e-06
-3.31525e-06
-2.98556e-06
-2.69463e-06
-2.43562e-06
-2.20305e-06
-1.9925e-06
-1.80036e-06
-1.62367e-06
-1.46002e-06
-1.30753e-06
-1.16482e-06
-1.03094e-06
-9.05295e-07
-7.87513e-07
-6.77318e-07
-5.74402e-07
-4.78317e-07
-3.88398e-07
-3.03705e-07
-2.23091e-07
-1.44694e-07
-7.30712e-08
9.40109e-05
9.39086e-05
9.36463e-05
9.32245e-05
9.26358e-05
9.18562e-05
9.08531e-05
8.95875e-05
8.80132e-05
8.60756e-05
8.37106e-05
8.08453e-05
7.73982e-05
7.3281e-05
6.84011e-05
6.26663e-05
5.59912e-05
4.83058e-05
3.95671e-05
2.97727e-05
1.89758e-05
7.29988e-06
-5.0492e-06
-1.77766e-05
-3.05014e-05
-4.27723e-05
-5.40977e-05
-6.39906e-05
-7.20214e-05
-7.78717e-05
-8.13761e-05
-8.25431e-05
-8.1548e-05
-7.87005e-05
-7.43948e-05
-6.90549e-05
-6.30877e-05
-5.68497e-05
-5.06298e-05
-4.46452e-05
-3.90452e-05
-3.39209e-05
-2.93164e-05
-2.52403e-05
-2.16761e-05
-1.85912e-05
-1.59436e-05
-1.36867e-05
-1.17729e-05
-1.01562e-05
-8.79371e-06
-7.64657e-06
-6.68055e-06
-5.86592e-06
-5.17714e-06
-4.59243e-06
-4.09325e-06
-3.66401e-06
-3.29178e-06
-2.96602e-06
-2.67829e-06
-2.42191e-06
-2.19157e-06
-1.98296e-06
-1.79256e-06
-1.61742e-06
-1.45515e-06
-1.30386e-06
-1.16216e-06
-1.02909e-06
-9.04066e-07
-7.86723e-07
-6.76794e-07
-5.73988e-07
-4.77875e-07
-3.87824e-07
-3.02953e-07
-2.22202e-07
-1.4384e-07
-7.25266e-08
9.41031e-05
9.40037e-05
9.37489e-05
9.33388e-05
9.27662e-05
9.20072e-05
9.10297e-05
8.97951e-05
8.82576e-05
8.63624e-05
8.40455e-05
8.12333e-05
7.78433e-05
7.3785e-05
6.89628e-05
6.32802e-05
5.6646e-05
4.8983e-05
4.02399e-05
3.04055e-05
1.95242e-05
7.71273e-06
-4.82595e-06
-1.7794e-05
-3.07998e-05
-4.33726e-05
-5.49943e-05
-6.51462e-05
-7.33681e-05
-7.93177e-05
-8.28184e-05
-8.3883e-05
-8.27056e-05
-7.96241e-05
-7.50637e-05
-6.94758e-05
-6.32873e-05
-5.68661e-05
-5.05055e-05
-4.44212e-05
-3.87578e-05
-3.36002e-05
-2.89856e-05
-2.49161e-05
-2.137e-05
-1.83099e-05
-1.56906e-05
-1.3463e-05
-1.15778e-05
-9.98792e-06
-8.64981e-06
-7.52436e-06
-6.57733e-06
-5.77919e-06
-5.10462e-06
-4.53205e-06
-4.04314e-06
-3.62244e-06
-3.25723e-06
-2.93717e-06
-2.65408e-06
-2.40155e-06
-2.17446e-06
-1.96869e-06
-1.78081e-06
-1.60793e-06
-1.44765e-06
-1.29809e-06
-1.15783e-06
-1.02594e-06
-9.01828e-07
-7.85151e-07
-6.75662e-07
-5.73088e-07
-4.77027e-07
-3.86892e-07
-3.0187e-07
-2.21014e-07
-1.42746e-07
-7.18734e-08
9.42228e-05
9.41271e-05
9.38819e-05
9.3487e-05
9.29352e-05
9.2203e-05
9.12588e-05
9.00646e-05
8.85748e-05
8.6735e-05
8.44809e-05
8.17383e-05
7.84231e-05
7.44424e-05
6.96965e-05
6.40833e-05
5.75041e-05
4.98724e-05
4.1126e-05
3.12415e-05
2.02518e-05
8.26438e-06
-4.5221e-06
-1.78063e-05
-3.11828e-05
-4.41556e-05
-5.61706e-05
-6.66672e-05
-7.51436e-05
-8.1225e-05
-8.47198e-05
-8.56467e-05
-8.42253e-05
-8.08319e-05
-7.59334e-05
-7.00177e-05
-6.35382e-05
-5.68775e-05
-5.03339e-05
-4.41207e-05
-3.83763e-05
-3.31768e-05
-2.85505e-05
-2.4491e-05
-2.09692e-05
-1.79423e-05
-1.53605e-05
-1.31715e-05
-1.1324e-05
-9.76929e-06
-8.46305e-06
-7.36589e-06
-6.4436e-06
-5.66689e-06
-5.01076e-06
-4.45392e-06
-3.97828e-06
-3.56862e-06
-3.21245e-06
-2.89974e-06
-2.62265e-06
-2.37507e-06
-2.15221e-06
-1.95013e-06
-1.76553e-06
-1.59555e-06
-1.43783e-06
-1.29046e-06
-1.15204e-06
-1.02163e-06
-8.98678e-07
-7.82866e-07
-6.73976e-07
-5.71761e-07
-4.75851e-07
-3.85703e-07
-3.00588e-07
-2.19679e-07
-1.41565e-07
-7.11882e-08
9.4367e-05
9.42759e-05
9.40423e-05
9.36658e-05
9.31391e-05
9.24393e-05
9.15355e-05
9.03901e-05
8.89583e-05
8.71856e-05
8.5008e-05
8.23502e-05
7.91265e-05
7.52409e-05
7.05892e-05
6.50623e-05
5.85526e-05
5.09622e-05
4.22151e-05
3.22732e-05
2.11547e-05
8.95509e-06
-4.13294e-06
-1.78045e-05
-3.16377e-05
-4.51056e-05
-5.76095e-05
-6.85357e-05
-7.73294e-05
-8.3575e-05
-8.70611e-05
-8.78142e-05
-8.60868e-05
-8.2304e-05
-7.69856e-05
-7.06653e-05
-6.38287e-05
-5.68761e-05
-5.01109e-05
-4.37432e-05
-3.79028e-05
-3.26548e-05
-2.80164e-05
-2.39708e-05
-2.04803e-05
-1.74948e-05
-1.49594e-05
-1.2818e-05
-1.10166e-05
-9.50484e-06
-8.23744e-06
-7.17464e-06
-6.28234e-06
-5.53157e-06
-4.89773e-06
-4.35988e-06
-3.90023e-06
-3.50384e-06
-3.15853e-06
-2.85464e-06
-2.58475e-06
-2.34315e-06
-2.12538e-06
-1.92775e-06
-1.74708e-06
-1.58059e-06
-1.42589e-06
-1.2811e-06
-1.14481e-06
-1.01612e-06
-8.94515e-07
-7.79724e-07
-6.71566e-07
-5.69827e-07
-4.74171e-07
-3.84107e-07
-2.98985e-07
-2.18107e-07
-1.40225e-07
-7.04075e-08
9.45326e-05
9.44467e-05
9.42264e-05
9.38711e-05
9.33733e-05
9.27108e-05
9.18533e-05
9.07643e-05
8.93993e-05
8.77044e-05
8.56153e-05
8.30561e-05
7.99391e-05
7.61649e-05
7.16241e-05
6.62e-05
5.97743e-05
5.22359e-05
4.34929e-05
3.34893e-05
2.22258e-05
9.78293e-06
-3.65461e-06
-1.77789e-05
-3.21495e-05
-4.62032e-05
-5.92883e-05
-7.07269e-05
-7.98999e-05
-8.63409e-05
-8.98148e-05
-9.03575e-05
-8.8262e-05
-8.40138e-05
-7.81966e-05
-7.1399e-05
-6.41443e-05
-5.68526e-05
-4.98324e-05
-4.32887e-05
-3.73405e-05
-3.204e-05
-2.73908e-05
-2.33641e-05
-1.99117e-05
-1.69758e-05
-1.44952e-05
-1.24096e-05
-1.06621e-05
-9.20037e-06
-7.97803e-06
-6.955e-06
-6.09734e-06
-5.37648e-06
-4.76832e-06
-4.25232e-06
-3.81105e-06
-3.42988e-06
-3.097e-06
-2.8032e-06
-2.54154e-06
-2.30678e-06
-2.09485e-06
-1.90233e-06
-1.72616e-06
-1.56362e-06
-1.41233e-06
-1.2704e-06
-1.13645e-06
-1.00964e-06
-8.89499e-07
-7.75828e-07
-6.68496e-07
-5.67326e-07
-4.72019e-07
-3.82133e-07
-2.971e-07
-2.16341e-07
-1.38768e-07
-6.95614e-08
9.47156e-05
9.46355e-05
9.44299e-05
9.4098e-05
9.36322e-05
9.3011e-05
9.22051e-05
9.11786e-05
8.9888e-05
8.82798e-05
8.62896e-05
8.38409e-05
8.08439e-05
7.71958e-05
7.27812e-05
6.74751e-05
6.11478e-05
5.36729e-05
4.49406e-05
3.48745e-05
2.34546e-05
1.07437e-05
-3.08415e-06
-1.77189e-05
-3.27003e-05
-4.74244e-05
-6.11781e-05
-7.32086e-05
-8.28206e-05
-8.94872e-05
-9.29446e-05
-9.32403e-05
-9.07159e-05
-8.59287e-05
-7.95383e-05
-7.21967e-05
-6.44695e-05
-5.67982e-05
-4.94953e-05
-4.2759e-05
-3.66952e-05
-3.13406e-05
-2.66834e-05
-2.2681e-05
-1.92739e-05
-1.63951e-05
-1.39772e-05
-1.19549e-05
-1.02681e-05
-8.86248e-06
-7.69052e-06
-6.71183e-06
-5.89269e-06
-5.20506e-06
-4.62539e-06
-4.13363e-06
-3.7127e-06
-3.34836e-06
-3.02918e-06
-2.74648e-06
-2.49387e-06
-2.26665e-06
-2.06117e-06
-1.87427e-06
-1.70306e-06
-1.54484e-06
-1.39723e-06
-1.25836e-06
-1.12689e-06
-1.00205e-06
-8.83448e-07
-7.7097e-07
-6.64544e-07
-5.6404e-07
-4.69194e-07
-3.79609e-07
-2.94791e-07
-2.14271e-07
-1.37113e-07
-6.8596e-08
9.49118e-05
9.48379e-05
9.46481e-05
9.43414e-05
9.39099e-05
9.33332e-05
9.25826e-05
9.16237e-05
9.04133e-05
8.88989e-05
8.7016e-05
8.46874e-05
8.18216e-05
7.83118e-05
7.40368e-05
6.88627e-05
6.26471e-05
5.52477e-05
4.65346e-05
3.64086e-05
2.48262e-05
1.18294e-05
-2.42113e-06
-1.76147e-05
-3.32708e-05
-4.87409e-05
-6.32435e-05
-7.594e-05
-8.60471e-05
-9.29675e-05
-9.64035e-05
-9.64162e-05
-9.34047e-05
-8.80099e-05
-8.09785e-05
-7.3034e-05
-6.47884e-05
-5.67047e-05
-4.90983e-05
-4.21582e-05
-3.59748e-05
-3.05672e-05
-2.59063e-05
-2.19344e-05
-1.85794e-05
-1.57649e-05
-1.34164e-05
-1.14638e-05
-9.8435e-06
-8.499e-06
-7.38172e-06
-6.45099e-06
-5.67344e-06
-5.02164e-06
-4.47269e-06
-4.00703e-06
-3.60798e-06
-3.26167e-06
-2.95715e-06
-2.6863e-06
-2.44335e-06
-2.22418e-06
-2.0256e-06
-1.84473e-06
-1.67879e-06
-1.52512e-06
-1.38136e-06
-1.24562e-06
-1.11666e-06
-9.9377e-07
-8.76702e-07
-7.65421e-07
-6.59934e-07
-5.60156e-07
-4.65855e-07
-3.76672e-07
-2.92175e-07
-2.11993e-07
-1.35327e-07
-6.75483e-08
9.51167e-05
9.50492e-05
9.4876e-05
9.45955e-05
9.42e-05
9.36697e-05
9.29773e-05
9.2089e-05
9.09631e-05
8.95474e-05
8.77779e-05
8.55767e-05
8.28503e-05
7.94886e-05
7.53641e-05
7.03337e-05
6.42421e-05
5.69298e-05
4.82456e-05
3.80655e-05
2.63199e-05
1.3027e-05
-1.66864e-06
-1.7458e-05
-3.38407e-05
-5.01209e-05
-6.54422e-05
-7.88706e-05
-8.95235e-05
-9.67228e-05
-0.000100132
-9.98283e-05
-9.62762e-05
-9.02122e-05
-8.24813e-05
-7.38853e-05
-6.50853e-05
-5.65659e-05
-4.86428e-05
-4.14935e-05
-3.51907e-05
-2.97336e-05
-2.50745e-05
-2.11393e-05
-1.78428e-05
-1.50987e-05
-1.28252e-05
-1.09473e-05
-9.39777e-06
-8.11809e-06
-7.05853e-06
-6.17827e-06
-5.44439e-06
-4.8302e-06
-4.31345e-06
-3.87514e-06
-3.49896e-06
-3.17146e-06
-2.88217e-06
-2.6236e-06
-2.39067e-06
-2.17989e-06
-1.98851e-06
-1.81394e-06
-1.6535e-06
-1.50455e-06
-1.36469e-06
-1.23211e-06
-1.10561e-06
-9.84631e-07
-8.69059e-07
-7.58977e-07
-6.54475e-07
-5.55511e-07
-4.61877e-07
-3.73238e-07
-2.89206e-07
-2.09491e-07
-1.33418e-07
-6.64276e-08
9.53253e-05
9.52644e-05
9.51081e-05
9.48544e-05
9.44956e-05
9.40127e-05
9.33797e-05
9.25639e-05
9.15245e-05
9.02102e-05
8.85575e-05
8.64879e-05
8.39064e-05
8.06992e-05
7.6733e-05
7.18554e-05
6.5898e-05
5.86836e-05
5.00386e-05
3.9813e-05
2.79088e-05
1.43177e-05
-8.34604e-07
-1.72436e-05
-3.43897e-05
-5.15288e-05
-6.77247e-05
-8.19397e-05
-9.3181e-05
-0.00010068
-0.000104058
-0.000103407
-9.92687e-05
-9.24846e-05
-8.40078e-05
-7.47246e-05
-6.53467e-05
-5.63783e-05
-4.81337e-05
-4.07758e-05
-3.43574e-05
-2.88566e-05
-2.42055e-05
-2.03131e-05
-1.70806e-05
-1.44117e-05
-1.22174e-05
-1.04176e-05
-8.94181e-06
-7.72919e-06
-6.7291e-06
-5.90068e-06
-5.21159e-06
-4.63592e-06
-4.15217e-06
-3.74184e-06
-3.38901e-06
-3.08061e-06
-2.80673e-06
-2.56056e-06
-2.33775e-06
-2.13546e-06
-1.95142e-06
-1.78327e-06
-1.62841e-06
-1.48418e-06
-1.34817e-06
-1.2186e-06
-1.09439e-06
-9.75161e-07
-8.60949e-07
-7.51984e-07
-6.48445e-07
-5.50332e-07
-4.57447e-07
-3.69458e-07
-2.86002e-07
-2.06849e-07
-1.31425e-07
-6.52309e-08
9.5533e-05
9.54787e-05
9.53391e-05
9.5112e-05
9.47897e-05
9.43541e-05
9.37803e-05
9.30368e-05
9.2084e-05
9.08715e-05
8.93362e-05
8.73994e-05
8.49647e-05
8.19149e-05
7.81112e-05
7.3392e-05
6.75761e-05
6.04685e-05
5.1873e-05
4.16123e-05
2.9559e-05
1.56761e-05
6.71991e-08
-1.69698e-05
-3.48987e-05
-5.29267e-05
-7.00351e-05
-8.50757e-05
-9.6937e-05
-0.000104752
-0.000108093
-0.000107072
-0.000102312
-9.47705e-05
-8.55176e-05
-7.55271e-05
-6.55614e-05
-5.61425e-05
-4.75799e-05
-4.00198e-05
-3.34933e-05
-2.7956e-05
-2.33195e-05
-1.94751e-05
-1.63108e-05
-1.37202e-05
-1.16073e-05
-9.88723e-06
-8.48611e-06
-7.34113e-06
-6.40076e-06
-5.62422e-06
-4.97988e-06
-4.44272e-06
-3.99195e-06
-3.60956e-06
-3.27997e-06
-2.99051e-06
-2.73183e-06
-2.49786e-06
-2.28503e-06
-2.09119e-06
-1.9145e-06
-1.75282e-06
-1.60357e-06
-1.46402e-06
-1.33175e-06
-1.20503e-06
-1.08294e-06
-9.65268e-07
-8.52278e-07
-7.44357e-07
-6.41782e-07
-5.44588e-07
-4.52569e-07
-3.65377e-07
-2.82647e-07
-2.0418e-07
-1.29481e-07
-6.40706e-08
9.57348e-05
9.56868e-05
9.55635e-05
9.53622e-05
9.50754e-05
9.46858e-05
9.41696e-05
9.34966e-05
9.26282e-05
9.15152e-05
9.0095e-05
8.82889e-05
8.5999e-05
8.31056e-05
7.94642e-05
7.49051e-05
6.92344e-05
6.22398e-05
5.37027e-05
4.34187e-05
3.12299e-05
1.70692e-05
1.01635e-06
-1.66406e-05
-3.53512e-05
-5.42756e-05
-7.23116e-05
-8.81972e-05
-0.000100696
-0.000108835
-0.000112135
-0.000110729
-0.000105326
-9.70095e-05
-8.69695e-05
-7.62699e-05
-6.57224e-05
-5.58633e-05
-4.69949e-05
-3.92445e-05
-3.26204e-05
-2.7055e-05
-2.24391e-05
-1.8647e-05
-1.55532e-05
-1.3042e-05
-1.10109e-05
-9.37016e-06
-8.04294e-06
-6.9645e-06
-6.08261e-06
-5.35674e-06
-4.75606e-06
-4.25647e-06
-3.8379e-06
-3.48273e-06
-3.1757e-06
-2.90449e-06
-2.66036e-06
-2.43803e-06
-2.23475e-06
-2.04904e-06
-1.8795e-06
-1.72414e-06
-1.58034e-06
-1.44529e-06
-1.31652e-06
-1.19235e-06
-1.07204e-06
-9.55628e-07
-8.43599e-07
-7.36535e-07
-6.3482e-07
-5.38518e-07
-4.47402e-07
-3.61081e-07
-2.7916e-07
-2.01444e-07
-1.27495e-07
-6.28341e-08
9.59261e-05
9.58841e-05
9.57761e-05
9.55993e-05
9.5346e-05
9.49998e-05
9.45381e-05
9.39319e-05
9.31438e-05
9.21254e-05
9.08149e-05
8.91337e-05
8.69831e-05
8.42405e-05
8.0757e-05
7.63549e-05
7.08286e-05
6.39496e-05
5.54776e-05
4.5182e-05
3.28745e-05
1.84576e-05
1.98558e-06
-1.62656e-05
-3.57341e-05
-5.55364e-05
-7.44885e-05
-9.12142e-05
-0.000104349
-0.000112813
-0.000116069
-0.000114274
-0.000108227
-9.91387e-05
-8.83235e-05
-7.69338e-05
-6.58269e-05
-5.55504e-05
-4.63965e-05
-3.84726e-05
-3.17634e-05
-2.61785e-05
-2.15883e-05
-1.78505e-05
-1.48274e-05
-1.23944e-05
-1.04428e-05
-8.87882e-06
-7.62259e-06
-6.60774e-06
-5.78148e-06
-5.10366e-06
-4.54439e-06
-4.08048e-06
-3.69252e-06
-3.36322e-06
-3.07752e-06
-2.82347e-06
-2.59292e-06
-2.38141e-06
-2.18704e-06
-2.00902e-06
-1.84633e-06
-1.69708e-06
-1.55857e-06
-1.42782e-06
-1.30232e-06
-1.18044e-06
-1.06164e-06
-9.46211e-07
-8.34924e-07
-7.28563e-07
-6.27629e-07
-5.32216e-07
-4.42058e-07
-3.567e-07
-2.75695e-07
-1.98821e-07
-1.25665e-07
-6.17076e-08
9.61024e-05
9.60659e-05
9.5972e-05
9.58175e-05
9.55949e-05
9.52886e-05
9.4877e-05
9.43322e-05
9.36178e-05
9.26867e-05
9.14777e-05
8.99123e-05
8.78911e-05
8.52895e-05
8.19543e-05
7.7701e-05
7.23134e-05
6.55481e-05
5.7145e-05
4.68482e-05
3.44409e-05
1.97957e-05
2.94125e-06
-1.58603e-05
-3.60392e-05
-5.6672e-05
-7.64981e-05
-9.40308e-05
-0.00010778
-0.000116556
-0.000119769
-0.000117595
-0.000110924
-0.000101095
-8.95424e-05
-7.75037e-05
-6.58772e-05
-5.52183e-05
-4.58071e-05
-3.77305e-05
-3.09503e-05
-2.5354e-05
-2.0793e-05
-1.71097e-05
-1.4155e-05
-1.17964e-05
-9.91981e-06
-8.42771e-06
-7.23762e-06
-6.28168e-06
-5.50671e-06
-4.87309e-06
-4.35188e-06
-3.92084e-06
-3.56111e-06
-3.25563e-06
-2.98947e-06
-2.75099e-06
-2.53263e-06
-2.33077e-06
-2.14437e-06
-1.97329e-06
-1.81687e-06
-1.67327e-06
-1.53963e-06
-1.41282e-06
-1.29019e-06
-1.17021e-06
-1.05251e-06
-9.37705e-07
-8.26831e-07
-7.20904e-07
-6.20556e-07
-5.25903e-07
-4.36636e-07
-3.52221e-07
-2.72133e-07
-1.96104e-07
-1.23729e-07
-6.04382e-08
9.62597e-05
9.62281e-05
9.61466e-05
9.60118e-05
9.58164e-05
9.55453e-05
9.51779e-05
9.46875e-05
9.40386e-05
9.31849e-05
9.20661e-05
9.06039e-05
8.86985e-05
8.62236e-05
8.30224e-05
7.89045e-05
7.36446e-05
6.69862e-05
5.86514e-05
4.83619e-05
3.58746e-05
2.10342e-05
3.84482e-06
-1.54458e-05
-3.62629e-05
-5.76491e-05
-7.8274e-05
-9.65492e-05
-0.000110866
-0.000119933
-0.000123104
-0.000120576
-0.000113327
-0.000102817
-9.05928e-05
-7.79692e-05
-6.588e-05
-5.48849e-05
-4.52511e-05
-3.70456e-05
-3.02088e-05
-2.46081e-05
-2.00776e-05
-1.64461e-05
-1.35545e-05
-1.12638e-05
-9.45506e-06
-8.02763e-06
-6.89673e-06
-5.99322e-06
-5.26371e-06
-4.66917e-06
-4.18165e-06
-3.77979e-06
-3.44518e-06
-3.16091e-06
-2.91208e-06
-2.68727e-06
-2.47953e-06
-2.28601e-06
-2.10653e-06
-1.94156e-06
-1.79077e-06
-1.6523e-06
-1.52313e-06
-1.39988e-06
-1.2798e-06
-1.16141e-06
-1.04455e-06
-9.30105e-07
-8.19426e-07
-7.13758e-07
-6.13863e-07
-5.19888e-07
-4.31475e-07
-3.47999e-07
-2.68845e-07
-1.9368e-07
-1.22081e-07
-5.93858e-08
9.63944e-05
9.63669e-05
9.62958e-05
9.61777e-05
9.60051e-05
9.57637e-05
9.54336e-05
9.4989e-05
9.43954e-05
9.36072e-05
9.25647e-05
9.11902e-05
8.93833e-05
8.70164e-05
8.39301e-05
7.99291e-05
7.47807e-05
6.82171e-05
5.99456e-05
4.9669e-05
3.71212e-05
2.21226e-05
4.65528e-06
-1.50471e-05
-3.6407e-05
-5.84392e-05
-7.97543e-05
-9.86748e-05
-0.000113488
-0.000122808
-0.000125942
-0.000123105
-0.00011535
-0.000104249
-9.1447e-05
-7.83251e-05
-6.58462e-05
-5.45714e-05
-4.47554e-05
-3.6447e-05
-2.95679e-05
-2.39682e-05
-1.94671e-05
-1.58822e-05
-1.30461e-05
-1.08141e-05
-9.0638e-06
-7.69174e-06
-6.61128e-06
-5.75222e-06
-5.06106e-06
-4.49942e-06
-4.0403e-06
-3.66308e-06
-3.34976e-06
-3.08342e-06
-2.84915e-06
-2.63571e-06
-2.43665e-06
-2.24988e-06
-2.07597e-06
-1.91599e-06
-1.76986e-06
-1.63571e-06
-1.51029e-06
-1.38999e-06
-1.27196e-06
-1.15471e-06
-1.0383e-06
-9.2389e-07
-8.13109e-07
-7.07435e-07
-6.07761e-07
-5.14263e-07
-4.26536e-07
-3.43863e-07
-2.65534e-07
-1.91144e-07
-1.20249e-07
-5.81088e-08
9.65035e-05
9.64792e-05
9.64164e-05
9.63113e-05
9.61567e-05
9.59386e-05
9.56379e-05
9.52294e-05
9.46792e-05
9.39427e-05
9.29605e-05
9.16552e-05
8.99262e-05
8.76452e-05
8.46505e-05
8.07432e-05
7.56848e-05
6.91992e-05
6.09817e-05
5.07202e-05
3.81304e-05
2.30133e-05
5.33242e-06
-1.46903e-05
-3.64766e-05
-5.90202e-05
-8.0885e-05
-0.000100322
-0.000115534
-0.000125059
-0.000128164
-0.000125076
-0.000116916
-0.000105343
-9.20828e-05
-7.85698e-05
-6.5788e-05
-5.42984e-05
-4.43445e-05
-3.59603e-05
-2.90523e-05
-2.34569e-05
-1.89817e-05
-1.54352e-05
-1.2644e-05
-1.04592e-05
-8.75556e-06
-7.42753e-06
-6.387e-06
-5.563e-06
-4.90197e-06
-4.36615e-06
-3.92936e-06
-3.57162e-06
-3.27518e-06
-3.0231e-06
-2.80035e-06
-2.59583e-06
-2.40349e-06
-2.22189e-06
-2.05225e-06
-1.89615e-06
-1.75373e-06
-1.62305e-06
-1.50067e-06
-1.38276e-06
-1.26633e-06
-1.14992e-06
-1.03375e-06
-9.19208e-07
-8.08199e-07
-7.02403e-07
-6.02833e-07
-5.09696e-07
-4.22542e-07
-3.40571e-07
-2.62977e-07
-1.89279e-07
-1.18997e-07
-5.72627e-08
9.65847e-05
9.65626e-05
9.65056e-05
9.64097e-05
9.62677e-05
9.6066e-05
9.5786e-05
9.54028e-05
9.48832e-05
9.41828e-05
9.32429e-05
9.19863e-05
9.03122e-05
8.80917e-05
8.51619e-05
8.13212e-05
7.63274e-05
6.98983e-05
6.17216e-05
5.14743e-05
3.88598e-05
2.36652e-05
5.84083e-06
-1.44001e-05
-3.64793e-05
-5.93763e-05
-8.16232e-05
-0.000101421
-0.000116913
-0.000126581
-0.000129666
-0.000126403
-0.000117961
-0.00010606
-9.2485e-05
-7.87051e-05
-6.57187e-05
-5.40857e-05
-4.40413e-05
-3.56091e-05
-2.86848e-05
-2.30953e-05
-1.86403e-05
-1.51222e-05
-1.23634e-05
-1.02122e-05
-8.54169e-06
-7.24483e-06
-6.23246e-06
-5.43305e-06
-4.79308e-06
-4.27527e-06
-3.85408e-06
-3.51001e-06
-3.22546e-06
-2.9834e-06
-2.76868e-06
-2.57027e-06
-2.38241e-06
-2.20416e-06
-2.03726e-06
-1.88367e-06
-1.74369e-06
-1.61534e-06
-1.49499e-06
-1.37864e-06
-1.26317e-06
-1.14714e-06
-1.03088e-06
-9.15987e-07
-8.04566e-07
-6.98469e-07
-5.98812e-07
-5.05826e-07
-4.19025e-07
-3.37536e-07
-2.60471e-07
-1.87283e-07
-1.17467e-07
-5.60763e-08
9.66363e-05
9.66155e-05
9.65616e-05
9.64708e-05
9.63357e-05
9.61431e-05
9.58744e-05
9.55051e-05
9.50021e-05
9.43216e-05
9.34048e-05
9.21747e-05
9.05306e-05
8.83432e-05
8.54489e-05
8.1645e-05
7.66871e-05
7.02902e-05
6.21378e-05
5.19015e-05
3.92782e-05
2.40477e-05
6.15361e-06
-1.41957e-05
-3.64222e-05
-5.94984e-05
-8.19398e-05
-0.000101922
-0.000117557
-0.0001273
-0.000130374
-0.000127024
-0.000118439
-0.000106375
-9.26439e-05
-7.87335e-05
-6.56483e-05
-5.39474e-05
-4.38616e-05
-3.54088e-05
-2.84797e-05
-2.28961e-05
-1.84537e-05
-1.4952e-05
-1.22113e-05
-1.00787e-05
-8.42639e-06
-7.1466e-06
-6.14962e-06
-5.3636e-06
-4.73507e-06
-4.22706e-06
-3.81441e-06
-3.47792e-06
-3.20001e-06
-2.96357e-06
-2.75334e-06
-2.55825e-06
-2.37276e-06
-2.19619e-06
-2.03064e-06
-1.8783e-06
-1.73957e-06
-1.61246e-06
-1.4932e-06
-1.37766e-06
-1.26261e-06
-1.14664e-06
-1.03014e-06
-9.14843e-07
-8.03001e-07
-6.96583e-07
-5.96776e-07
-5.03831e-07
-4.17232e-07
-3.3605e-07
-2.59331e-07
-1.8647e-07
-1.16927e-07
-5.56107e-08
9.66573e-05
9.66367e-05
9.65834e-05
9.64934e-05
9.63595e-05
9.61683e-05
9.59013e-05
9.55341e-05
9.50336e-05
9.43559e-05
9.34423e-05
9.22158e-05
9.05758e-05
8.83929e-05
8.55034e-05
8.17049e-05
7.67527e-05
7.03619e-05
6.22157e-05
5.19858e-05
3.93688e-05
2.41443e-05
6.25589e-06
-1.40883e-05
-3.63103e-05
-5.93826e-05
-8.18208e-05
-0.000101801
-0.000117434
-0.000127176
-0.000130252
-0.000126907
-0.00011833
-0.000106275
-9.2556e-05
-7.86575e-05
-6.55835e-05
-5.38924e-05
-4.3815e-05
-3.53694e-05
-2.84464e-05
-2.2868e-05
-1.84299e-05
-1.49318e-05
-1.21943e-05
-1.00646e-05
-8.41494e-06
-7.13757e-06
-6.1427e-06
-5.35845e-06
-4.73138e-06
-4.22463e-06
-3.81315e-06
-3.47778e-06
-3.20093e-06
-2.96538e-06
-2.75577e-06
-2.561e-06
-2.37553e-06
-2.1988e-06
-2.03302e-06
-1.88047e-06
-1.74161e-06
-1.6144e-06
-1.49505e-06
-1.37934e-06
-1.26402e-06
-1.14765e-06
-1.03066e-06
-9.1484e-07
-8.0251e-07
-6.95697e-07
-5.95624e-07
-5.02548e-07
-4.15934e-07
-3.34813e-07
-2.58191e-07
-1.85421e-07
-1.15959e-07
-5.46533e-08
9.66477e-05
9.66263e-05
9.65708e-05
9.64775e-05
9.63388e-05
9.61414e-05
9.58666e-05
9.54896e-05
9.49773e-05
9.42854e-05
9.33551e-05
9.21093e-05
9.04473e-05
8.82402e-05
8.5325e-05
8.15003e-05
7.65235e-05
7.01125e-05
6.19544e-05
5.17261e-05
3.91304e-05
2.39538e-05
6.14636e-06
-1.40793e-05
-3.61451e-05
-5.90306e-05
-8.12678e-05
-0.000101058
-0.000116545
-0.000126213
-0.000129302
-0.000126054
-0.000117634
-0.000105763
-9.22224e-05
-7.84778e-05
-6.55242e-05
-5.39202e-05
-4.39008e-05
-3.54899e-05
-2.85837e-05
-2.30095e-05
-1.85673e-05
-1.50601e-05
-1.23107e-05
-1.01681e-05
-8.50547e-06
-7.21584e-06
-6.20984e-06
-5.41582e-06
-4.78035e-06
-4.26645e-06
-3.84889e-06
-3.50834e-06
-3.22709e-06
-2.98785e-06
-2.7752e-06
-2.57792e-06
-2.39037e-06
-2.21185e-06
-2.04446e-06
-1.89043e-06
-1.75018e-06
-1.6217e-06
-1.5012e-06
-1.38449e-06
-1.26832e-06
-1.15122e-06
-1.03361e-06
-9.17275e-07
-8.04508e-07
-6.97333e-07
-5.96968e-07
-5.03664e-07
-4.16876e-07
-3.35616e-07
-2.58865e-07
-1.85957e-07
-1.1632e-07
-5.46656e-08
9.66081e-05
9.65848e-05
9.65246e-05
9.64237e-05
9.62746e-05
9.60636e-05
9.57716e-05
9.53734e-05
9.48354e-05
9.41127e-05
9.31464e-05
9.1859e-05
9.01501e-05
8.78912e-05
8.49207e-05
8.10397e-05
7.60095e-05
6.95535e-05
6.13668e-05
5.11365e-05
3.85776e-05
2.34903e-05
5.83718e-06
-1.41605e-05
-3.59248e-05
-5.84495e-05
-8.02987e-05
-9.97238e-05
-0.000114928
-0.000124452
-0.000127566
-0.000124501
-0.000116379
-0.000104854
-9.16502e-05
-7.81945e-05
-6.54663e-05
-5.40243e-05
-4.41115e-05
-3.57626e-05
-2.88847e-05
-2.33147e-05
-1.88609e-05
-1.53326e-05
-1.25572e-05
-1.03866e-05
-8.69611e-06
-7.38008e-06
-6.35013e-06
-5.53508e-06
-4.88155e-06
-4.3522e-06
-3.92136e-06
-3.56933e-06
-3.27821e-06
-3.03066e-06
-2.81121e-06
-2.60852e-06
-2.41666e-06
-2.23459e-06
-2.0641e-06
-1.90718e-06
-1.76419e-06
-1.63314e-06
-1.51034e-06
-1.39169e-06
-1.27397e-06
-1.15572e-06
-1.03729e-06
-9.20358e-07
-8.07136e-07
-6.99576e-07
-5.98851e-07
-5.05193e-07
-4.1805e-07
-3.36437e-07
-2.59333e-07
-1.86068e-07
-1.16084e-07
-5.40575e-08
9.65399e-05
9.65138e-05
9.64464e-05
9.6334e-05
9.61691e-05
9.59375e-05
9.56195e-05
9.51892e-05
9.46123e-05
9.38435e-05
9.2823e-05
9.14733e-05
8.9694e-05
8.73577e-05
8.43049e-05
8.03401e-05
7.52304e-05
6.87077e-05
6.04786e-05
5.02448e-05
3.77395e-05
2.27818e-05
5.35262e-06
-1.43153e-05
-3.5645e-05
-5.76517e-05
-7.89459e-05
-9.78505e-05
-0.000112654
-0.000121975
-0.000125123
-0.000122317
-0.000114613
-0.000103577
-9.08509e-05
-7.78063e-05
-6.54001e-05
-5.41902e-05
-4.44306e-05
-3.61706e-05
-2.93329e-05
-2.37684e-05
-1.92971e-05
-1.57375e-05
-1.29235e-05
-1.07113e-05
-8.97928e-06
-7.62389e-06
-6.55818e-06
-5.71173e-06
-5.03118e-06
-4.47871e-06
-4.02796e-06
-3.65869e-06
-3.35274e-06
-3.09271e-06
-2.86312e-06
-2.65242e-06
-2.45429e-06
-2.26716e-06
-2.09229e-06
-1.93132e-06
-1.78445e-06
-1.64975e-06
-1.5237e-06
-1.40233e-06
-1.28254e-06
-1.16282e-06
-1.04343e-06
-9.25882e-07
-8.12232e-07
-7.04303e-07
-6.03187e-07
-5.09085e-07
-4.21448e-07
-3.39305e-07
-2.6165e-07
-1.87823e-07
-1.1725e-07
-5.44921e-08
9.64451e-05
9.64153e-05
9.63384e-05
9.6211e-05
9.60254e-05
9.57667e-05
9.54146e-05
9.49424e-05
9.43148e-05
9.34857e-05
9.23947e-05
9.09639e-05
8.90935e-05
8.66572e-05
8.34982e-05
7.9426e-05
7.42149e-05
6.76079e-05
5.93262e-05
4.90906e-05
3.66566e-05
2.18675e-05
4.72586e-06
-1.45217e-05
-3.53012e-05
-5.66557e-05
-7.72552e-05
-9.55118e-05
-0.000109819
-0.000118888
-0.000122078
-0.00011959
-0.000112403
-0.000101974
-8.98426e-05
-7.73139e-05
-6.53145e-05
-5.44002e-05
-4.4837e-05
-3.66925e-05
-2.9908e-05
-2.4352e-05
-1.98596e-05
-1.62606e-05
-1.33974e-05
-1.11321e-05
-9.34661e-06
-7.94041e-06
-6.82838e-06
-5.9411e-06
-5.2253e-06
-4.64258e-06
-4.16574e-06
-3.77385e-06
-3.44843e-06
-3.17201e-06
-2.92907e-06
-2.70783e-06
-2.50145e-06
-2.30767e-06
-2.12708e-06
-1.96084e-06
-1.80896e-06
-1.66957e-06
-1.53933e-06
-1.41449e-06
-1.29205e-06
-1.1705e-06
-1.04994e-06
-9.3168e-07
-8.17554e-07
-7.09211e-07
-6.07639e-07
-5.12996e-07
-4.24735e-07
-3.41915e-07
-2.63557e-07
-1.89019e-07
-1.17746e-07
-5.42824e-08
9.63265e-05
9.62923e-05
9.62039e-05
9.60582e-05
9.58475e-05
9.55562e-05
9.51629e-05
9.46401e-05
9.39514e-05
9.30497e-05
9.18741e-05
9.03464e-05
8.8367e-05
8.58117e-05
8.25269e-05
7.83281e-05
7.29987e-05
6.62945e-05
5.79545e-05
4.77216e-05
3.53776e-05
2.07931e-05
3.99514e-06
-1.47555e-05
-3.48901e-05
-5.54862e-05
-7.52832e-05
-9.27956e-05
-0.000106535
-0.000115317
-0.000118554
-0.000116428
-0.000109829
-0.000100094
-8.86487e-05
-7.67197e-05
-6.51978e-05
-5.46336e-05
-4.53058e-05
-3.73017e-05
-3.0584e-05
-2.50415e-05
-2.05264e-05
-1.68826e-05
-1.39623e-05
-1.16345e-05
-9.78602e-06
-8.31957e-06
-7.15238e-06
-6.21627e-06
-5.45817e-06
-4.83909e-06
-4.33089e-06
-3.91184e-06
-3.56306e-06
-3.26699e-06
-3.00803e-06
-2.77411e-06
-2.55781e-06
-2.35606e-06
-2.16866e-06
-1.99621e-06
-1.83847e-06
-1.69361e-06
-1.5585e-06
-1.42963e-06
-1.30414e-06
-1.18048e-06
-1.05859e-06
-9.39526e-07
-8.24876e-07
-7.16081e-07
-6.13999e-07
-5.18739e-07
-4.2976e-07
-3.46153e-07
-2.6697e-07
-1.91589e-07
-1.19443e-07
-5.49835e-08
9.61875e-05
9.61481e-05
9.60466e-05
9.588e-05
9.56405e-05
9.53117e-05
9.48714e-05
9.42906e-05
9.35322e-05
9.2548e-05
9.12762e-05
8.96385e-05
8.75362e-05
8.48469e-05
8.14214e-05
7.70819e-05
7.16223e-05
6.48132e-05
5.64135e-05
4.61908e-05
3.39554e-05
1.96076e-05
3.19994e-06
-1.49934e-05
-3.4412e-05
-5.41732e-05
-7.30936e-05
-8.97983e-05
-0.000102925
-0.000111397
-0.000114683
-0.000112944
-0.000106979
-9.79951e-05
-8.72982e-05
-7.60304e-05
-6.50404e-05
-5.48708e-05
-4.58117e-05
-3.79708e-05
-3.13337e-05
-2.5811e-05
-2.12744e-05
-1.75829e-05
-1.46003e-05
-1.22034e-05
-1.02846e-05
-8.75053e-06
-7.52112e-06
-6.52965e-06
-5.72339e-06
-5.06278e-06
-4.51873e-06
-4.06868e-06
-3.69324e-06
-3.37471e-06
-3.09737e-06
-2.84884e-06
-2.62103e-06
-2.41003e-06
-2.21476e-06
-2.03521e-06
-1.87084e-06
-1.71983e-06
-1.57927e-06
-1.4459e-06
-1.31696e-06
-1.19089e-06
-1.06744e-06
-9.47433e-07
-8.32151e-07
-7.22819e-07
-6.20155e-07
-5.24212e-07
-4.34451e-07
-3.49992e-07
-2.69922e-07
-1.93633e-07
-1.20562e-07
-5.51486e-08
9.60319e-05
9.59868e-05
9.58708e-05
9.56811e-05
9.54099e-05
9.504e-05
9.45479e-05
9.39037e-05
9.30689e-05
9.19943e-05
9.06177e-05
8.88605e-05
8.6625e-05
8.37913e-05
8.02149e-05
7.57257e-05
7.01293e-05
6.32126e-05
5.47557e-05
4.45527e-05
3.24437e-05
1.83595e-05
2.37772e-06
-1.52156e-05
-3.38715e-05
-5.27513e-05
-7.0754e-05
-8.66187e-05
-9.91113e-05
-0.000107263
-0.000110599
-0.000109255
-0.000103942
-9.5738e-05
-8.5825e-05
-7.52569e-05
-6.48364e-05
-5.50943e-05
-4.63305e-05
-3.86724e-05
-3.21289e-05
-2.66337e-05
-2.20785e-05
-1.8339e-05
-1.52914e-05
-1.28214e-05
-1.08276e-05
-9.22091e-06
-7.92423e-06
-6.87259e-06
-6.01376e-06
-5.30772e-06
-4.72446e-06
-4.24052e-06
-3.836e-06
-3.49293e-06
-3.19545e-06
-2.9308e-06
-2.69026e-06
-2.46902e-06
-2.26512e-06
-2.07786e-06
-1.90637e-06
-1.74882e-06
-1.60248e-06
-1.46429e-06
-1.33165e-06
-1.20296e-06
-1.07779e-06
-9.56692e-07
-8.40676e-07
-7.30735e-07
-6.27441e-07
-5.30782e-07
-4.40215e-07
-3.54884e-07
-2.73898e-07
-1.96654e-07
-1.22563e-07
-5.59893e-08
9.58638e-05
9.58127e-05
9.56812e-05
9.5467e-05
9.51619e-05
9.47482e-05
9.42011e-05
9.34895e-05
9.25738e-05
9.14038e-05
8.99166e-05
8.80338e-05
8.56587e-05
8.26745e-05
7.89419e-05
7.42993e-05
6.85645e-05
6.15417e-05
5.30333e-05
4.28606e-05
3.08937e-05
1.70936e-05
1.56146e-06
-1.5407e-05
-3.32774e-05
-5.12584e-05
-6.83325e-05
-8.33532e-05
-9.52112e-05
-0.000103043
-0.000106425
-0.000105473
-0.000100808
-9.33861e-05
-8.42668e-05
-7.44149e-05
-6.4584e-05
-5.52903e-05
-4.68408e-05
-3.93811e-05
-3.2943e-05
-2.7483e-05
-2.29139e-05
-1.91284e-05
-1.60156e-05
-1.34711e-05
-1.13999e-05
-9.71779e-06
-8.35079e-06
-7.23588e-06
-6.3215e-06
-5.56734e-06
-4.94251e-06
-4.42268e-06
-3.98735e-06
-3.61825e-06
-3.29929e-06
-3.01738e-06
-2.7631e-06
-2.5308e-06
-2.31763e-06
-2.1222e-06
-1.94325e-06
-1.7789e-06
-1.62654e-06
-1.48333e-06
-1.34676e-06