/*--------------------------------*- C++ -*----------------------------------*\
| =========                 |                                                 |
| \\      /  F ield         | OpenFOAM: The Open Source CFD Toolbox           |
|  \\    /   O peration     | Version:  2512                                  |
|   \\  /    A nd           | Website:  www.openfoam.com                      |
|    \\/     M anipulation  |                                                 |
\*---------------------------------------------------------------------------*/
FoamFile
{
    version     2.0;
    format      ascii;
    arch        "LSB;label=32;scalar=64";
    class       volScalarField;
    location    "100";
    object      p;
}
// * * * * * * * * * * * * * * * * * * * * * * * * * * * * * * * * * * * * * //

dimensions      [0 2 -2 0 0 0 0];

internalField   nonuniform List<scalar> 
229904
(
1.92331e-05
1.921e-05
1.91507e-05
1.90553e-05
1.8922e-05
1.87452e-05
1.85175e-05
1.82299e-05
1.7872e-05
1.74313e-05
1.68936e-05
1.62423e-05
1.54595e-05
1.45256e-05
1.34202e-05
1.21234e-05
1.0617e-05
8.88655e-06
6.92406e-06
4.73062e-06
2.31957e-06
-2.80011e-07
-3.02088e-06
-5.83628e-06
-8.64088e-06
-1.13343e-05
-1.38079e-05
-1.59541e-05
-1.76776e-05
-1.89067e-05
-1.96027e-05
-1.97646e-05
-1.94291e-05
-1.86639e-05
-1.75575e-05
-1.6207e-05
-1.47076e-05
-1.31443e-05
-1.15873e-05
-1.009e-05
-8.68998e-06
-7.41048e-06
-6.26322e-06
-5.25098e-06
-4.37008e-06
-3.61257e-06
-2.968e-06
-2.42465e-06
-1.97053e-06
-1.59398e-06
-1.28414e-06
-1.03108e-06
-8.25989e-07
-6.61118e-07
-5.29728e-07
-4.25961e-07
-3.4475e-07
-2.81694e-07
-2.33008e-07
-1.9545e-07
-1.66284e-07
-1.43221e-07
-1.24386e-07
-1.08261e-07
-9.36709e-08
-7.97538e-08
-6.59567e-08
-5.20241e-08
-3.79768e-08
-2.40789e-08
-1.07808e-08
1.34665e-09
1.169e-08
1.96687e-08
2.47945e-08
2.67213e-08
2.52759e-08
2.05026e-08
1.28394e-08
2.41772e-09
1.92402e-05
1.92172e-05
1.91586e-05
1.90641e-05
1.8932e-05
1.87568e-05
1.8531e-05
1.82459e-05
1.78908e-05
1.74535e-05
1.69194e-05
1.62723e-05
1.54939e-05
1.45645e-05
1.34635e-05
1.21707e-05
1.06674e-05
8.93856e-06
6.97561e-06
4.77889e-06
2.36113e-06
-2.49122e-07
-3.00485e-06
-5.83911e-06
-8.66575e-06
-1.1383e-05
-1.388e-05
-1.60468e-05
-1.77857e-05
-1.9023e-05
-1.97189e-05
-1.98728e-05
-1.95228e-05
-1.87387e-05
-1.76113e-05
-1.62403e-05
-1.47225e-05
-1.31439e-05
-1.1575e-05
-1.00694e-05
-8.66417e-06
-7.38201e-06
-6.23408e-06
-5.2226e-06
-4.34342e-06
-3.58821e-06
-2.94621e-06
-2.4055e-06
-1.95394e-06
-1.57979e-06
-1.27209e-06
-1.02093e-06
-8.17465e-07
-6.53977e-07
-5.23743e-07
-4.20936e-07
-3.40509e-07
-2.78086e-07
-2.29901e-07
-1.92737e-07
-1.63881e-07
-1.41072e-07
-1.22455e-07
-1.06536e-07
-9.21552e-08
-7.84585e-08
-6.4896e-08
-5.12091e-08
-3.74123e-08
-2.37598e-08
-1.06915e-08
1.2331e-09
1.14121e-08
1.92734e-08
2.43376e-08
2.62612e-08
2.48716e-08
2.02037e-08
1.26717e-08
2.34624e-09
1.9254e-05
1.92316e-05
1.9174e-05
1.90813e-05
1.89517e-05
1.87796e-05
1.85578e-05
1.82774e-05
1.79279e-05
1.7497e-05
1.69703e-05
1.63313e-05
1.55616e-05
1.46412e-05
1.35491e-05
1.22642e-05
1.07671e-05
9.04174e-06
7.07804e-06
4.87503e-06
2.44415e-06
-1.87119e-07
-2.97224e-06
-5.84388e-06
-8.71434e-06
-1.14789e-05
-1.40227e-05
-1.62307e-05
-1.80003e-05
-1.9254e-05
-1.995e-05
-2.00881e-05
-1.97091e-05
-1.88871e-05
-1.77181e-05
-1.63062e-05
-1.47517e-05
-1.31427e-05
-1.15505e-05
-1.00285e-05
-8.61284e-06
-7.32542e-06
-6.17617e-06
-5.16622e-06
-4.29046e-06
-3.53982e-06
-2.90295e-06
-2.36749e-06
-1.92104e-06
-1.55164e-06
-1.24825e-06
-1.00087e-06
-8.00683e-07
-6.39983e-07
-5.12093e-07
-4.11236e-07
-3.32406e-07
-2.7127e-07
-2.24101e-07
-1.87723e-07
-1.59472e-07
-1.37135e-07
-1.1891e-07
-1.03342e-07
-8.93028e-08
-7.59597e-08
-6.2772e-08
-4.9481e-08
-3.60945e-08
-2.28545e-08
-1.01847e-08
1.37336e-09
1.12367e-08
1.88514e-08
2.37537e-08
2.56117e-08
2.42586e-08
1.97238e-08
1.23913e-08
2.26895e-09
1.92745e-05
1.92527e-05
1.91968e-05
1.91067e-05
1.89807e-05
1.88133e-05
1.85972e-05
1.83238e-05
1.79826e-05
1.75613e-05
1.70454e-05
1.64184e-05
1.56616e-05
1.47546e-05
1.36756e-05
1.24028e-05
1.09151e-05
9.19502e-06
7.23052e-06
5.01853e-06
2.56848e-06
-9.37287e-08
-2.92237e-06
-5.84959e-06
-8.78539e-06
-1.16208e-05
-1.42346e-05
-1.65044e-05
-1.83203e-05
-1.95986e-05
-2.02947e-05
-2.04089e-05
-1.99861e-05
-1.91072e-05
-1.78758e-05
-1.64029e-05
-1.47938e-05
-1.31397e-05
-1.15129e-05
-9.96665e-06
-8.53595e-06
-7.24097e-06
-6.08997e-06
-5.08245e-06
-4.21191e-06
-3.46815e-06
-2.83894e-06
-2.31134e-06
-1.87249e-06
-1.51018e-06
-1.21317e-06
-9.7143e-07
-7.76111e-07
-6.19555e-07
-4.95153e-07
-3.97193e-07
-3.20731e-07
-2.61492e-07
-2.15806e-07
-1.80561e-07
-1.53166e-07
-1.31484e-07
-1.13783e-07
-9.86749e-08
-8.50781e-08
-7.21924e-08
-5.9494e-08
-4.67283e-08
-3.38969e-08
-2.12281e-08
-9.12559e-09
1.89396e-09
1.1275e-08
1.84914e-08
2.31048e-08
2.48048e-08
2.34381e-08
1.90338e-08
1.19464e-08
2.12794e-09
1.93011e-05
1.92801e-05
1.92263e-05
1.91397e-05
1.90183e-05
1.88569e-05
1.86483e-05
1.8384e-05
1.80535e-05
1.76447e-05
1.7143e-05
1.65318e-05
1.57919e-05
1.49025e-05
1.38409e-05
1.25839e-05
1.1109e-05
9.39626e-06
7.43124e-06
5.20807e-06
2.73348e-06
3.11356e-08
-2.85436e-06
-5.85457e-06
-8.87655e-06
-1.18056e-05
-1.45124e-05
-1.68646e-05
-1.87421e-05
-2.00534e-05
-2.07495e-05
-2.08315e-05
-2.03501e-05
-1.93954e-05
-1.80811e-05
-1.65274e-05
-1.48464e-05
-1.31333e-05
-1.14616e-05
-9.88405e-06
-8.43404e-06
-7.12958e-06
-5.97666e-06
-4.97262e-06
-4.10914e-06
-3.37453e-06
-2.75547e-06
-2.23821e-06
-1.80935e-06
-1.45631e-06
-1.16766e-06
-9.33275e-07
-7.44306e-07
-5.93156e-07
-4.73298e-07
-3.79108e-07
-3.05723e-07
-2.48939e-07
-2.05163e-07
-1.71367e-07
-1.45056e-07
-1.24194e-07
-1.07145e-07
-9.26044e-08
-7.95517e-08
-6.72286e-08
-5.51339e-08
-4.30201e-08
-3.08836e-08
-1.89372e-08
-7.56126e-09
2.75808e-09
1.15003e-08
1.81757e-08
2.23807e-08
2.38343e-08
2.2404e-08
1.81231e-08
1.13206e-08
1.90539e-09
1.93331e-05
1.93131e-05
1.92619e-05
1.91794e-05
1.90637e-05
1.89096e-05
1.87101e-05
1.84567e-05
1.81393e-05
1.77456e-05
1.72611e-05
1.6669e-05
1.59499e-05
1.50821e-05
1.40419e-05
1.28047e-05
1.13458e-05
9.64272e-06
7.67788e-06
5.44193e-06
2.93822e-06
1.87545e-07
-2.76708e-06
-5.85667e-06
-8.98477e-06
-1.20298e-05
-1.48521e-05
-1.7307e-05
-1.92616e-05
-2.06141e-05
-2.13099e-05
-2.13515e-05
-2.07967e-05
-1.97473e-05
-1.83299e-05
-1.66763e-05
-1.49072e-05
-1.31219e-05
-1.13959e-05
-9.78073e-06
-8.30785e-06
-6.99248e-06
-5.83776e-06
-4.83841e-06
-3.98387e-06
-3.26065e-06
-2.65411e-06
-2.14954e-06
-1.73288e-06
-1.39115e-06
-1.11268e-06
-8.87212e-07
-7.05941e-07
-5.61336e-07
-4.4698e-07
-3.57354e-07
-2.8769e-07
-2.33872e-07
-1.92398e-07
-1.60347e-07
-1.35341e-07
-1.15467e-07
-9.92086e-08
-8.53545e-08
-7.29591e-08
-6.13117e-08
-4.99364e-08
-3.85942e-08
-2.72763e-08
-1.61797e-08
-5.65871e-09
3.83455e-09
1.18197e-08
1.78497e-08
2.15616e-08
2.27094e-08
2.11853e-08
1.70291e-08
1.05472e-08
1.61218e-09
1.93698e-05
1.9351e-05
1.93028e-05
1.9225e-05
1.91158e-05
1.897e-05
1.87809e-05
1.85402e-05
1.82378e-05
1.78617e-05
1.73972e-05
1.68273e-05
1.61324e-05
1.52898e-05
1.42749e-05
1.30611e-05
1.16215e-05
9.93062e-06
7.96708e-06
5.7175e-06
3.18108e-06
3.75057e-07
-2.65962e-06
-5.85357e-06
-9.10646e-06
-1.22886e-05
-1.52483e-05
-1.78258e-05
-1.98726e-05
-2.12743e-05
-2.19697e-05
-2.19625e-05
-2.13194e-05
-2.01567e-05
-1.86168e-05
-1.68454e-05
-1.49728e-05
-1.31038e-05
-1.13151e-05
-9.65705e-06
-8.15853e-06
-6.83138e-06
-5.67535e-06
-4.68207e-06
-3.83836e-06
-3.12869e-06
-2.53689e-06
-2.04717e-06
-1.64473e-06
-1.31612e-06
-1.04941e-06
-8.34253e-07
-6.61851e-07
-5.24784e-07
-4.16762e-07
-3.32393e-07
-2.67015e-07
-2.16613e-07
-1.77791e-07
-1.47752e-07
-1.24256e-07
-1.05534e-07
-9.0201e-08
-7.71551e-08
-6.553e-08
-5.46649e-08
-4.41108e-08
-3.36371e-08
-2.32301e-08
-1.30711e-08
-3.48827e-09
5.1012e-09
1.22591e-08
1.75838e-08
2.0756e-08
2.15669e-08
1.99338e-08
1.59027e-08
9.75609e-09
1.32502e-09
1.94103e-05
1.93928e-05
1.9348e-05
1.92754e-05
1.91733e-05
1.90369e-05
1.88593e-05
1.86327e-05
1.83471e-05
1.79904e-05
1.75482e-05
1.70033e-05
1.63355e-05
1.55214e-05
1.45352e-05
1.33484e-05
1.19314e-05
1.02553e-05
8.2946e-06
6.03127e-06
3.45964e-06
5.92709e-07
-2.53127e-06
-5.84279e-06
-9.2374e-06
-1.25764e-05
-1.56941e-05
-1.84132e-05
-2.0567e-05
-2.20258e-05
-2.27205e-05
-2.2656e-05
-2.19103e-05
-2.06163e-05
-1.89354e-05
-1.70295e-05
-1.50399e-05
-1.3077e-05
-1.12187e-05
-9.51383e-06
-7.98778e-06
-6.64859e-06
-5.49208e-06
-4.50637e-06
-3.67537e-06
-2.98127e-06
-2.40622e-06
-1.93325e-06
-1.54679e-06
-1.23287e-06
-9.79283e-07
-7.75587e-07
-6.13036e-07
-4.84335e-07
-3.83346e-07
-3.04818e-07
-2.44209e-07
-1.97611e-07
-1.61746e-07
-1.33956e-07
-1.12157e-07
-9.4739e-08
-8.04615e-08
-6.83394e-08
-5.75877e-08
-4.75961e-08
-3.79409e-08
-2.84002e-08
-1.89566e-08
-9.7774e-09
-1.16726e-09
6.49008e-09
1.27976e-08
1.73989e-08
2.00186e-08
2.04849e-08
1.8739e-08
1.483e-08
9.01345e-09
1.07018e-09
1.94538e-05
1.94377e-05
1.93964e-05
1.93294e-05
1.92351e-05
1.91086e-05
1.89435e-05
1.8732e-05
1.84644e-05
1.81288e-05
1.77108e-05
1.7193e-05
1.65548e-05
1.57721e-05
1.48176e-05
1.36608e-05
1.22694e-05
1.06108e-05
8.655e-06
6.37857e-06
3.77044e-06
8.38646e-07
-2.3819e-06
-5.822e-06
-9.37301e-06
-1.28864e-05
-1.6181e-05
-1.90596e-05
-2.13343e-05
-2.28577e-05
-2.35512e-05
-2.34215e-05
-2.25591e-05
-2.11171e-05
-1.92785e-05
-1.72233e-05
-1.51051e-05
-1.30401e-05
-1.11071e-05
-9.35249e-06
-7.79798e-06
-6.44706e-06
-5.29122e-06
-4.31469e-06
-3.49819e-06
-2.82147e-06
-2.26491e-06
-1.81032e-06
-1.44128e-06
-1.1433e-06
-9.03903e-07
-7.1257e-07
-5.60623e-07
-4.40919e-07
-3.47498e-07
-2.75261e-07
-2.19791e-07
-1.77295e-07
-1.44622e-07
-1.19264e-07
-9.93075e-08
-8.33173e-08
-7.02041e-08
-5.9102e-08
-4.93068e-08
-4.02559e-08
-3.15494e-08
-2.29739e-08
-1.45105e-08
-6.31692e-09
1.32163e-09
8.05069e-09
1.35115e-08
1.73914e-08
1.94576e-08
1.95744e-08
1.77047e-08
1.38982e-08
8.37942e-09
8.72132e-10
1.94991e-05
1.94845e-05
1.94469e-05
1.93858e-05
1.92995e-05
1.91834e-05
1.90314e-05
1.88357e-05
1.85871e-05
1.82738e-05
1.78813e-05
1.73922e-05
1.67855e-05
1.60363e-05
1.51159e-05
1.39918e-05
1.26289e-05
1.09904e-05
9.04163e-06
6.75348e-06
4.10878e-06
1.10992e-06
-2.21221e-06
-5.78925e-06
-9.5085e-06
-1.32112e-05
-1.66992e-05
-1.97531e-05
-2.21613e-05
-2.37562e-05
-2.4448e-05
-2.42456e-05
-2.32539e-05
-2.16488e-05
-1.96377e-05
-1.7421e-05
-1.51651e-05
-1.2992e-05
-1.09809e-05
-9.17527e-06
-7.5923e-06
-6.23057e-06
-5.07679e-06
-4.11103e-06
-3.31065e-06
-2.65285e-06
-2.11619e-06
-1.68121e-06
-1.33067e-06
-1.04956e-06
-8.25116e-07
-6.46766e-07
-5.05932e-07
-3.95655e-07
-3.10165e-07
-2.44526e-07
-1.94448e-07
-1.56256e-07
-1.26932e-07
-1.04129e-07
-8.61176e-08
-7.1644e-08
-5.9776e-08
-4.97651e-08
-4.09835e-08
-3.29111e-08
-2.51687e-08
-1.75525e-08
-1.0046e-08
-2.80337e-09
3.90272e-09
9.74116e-09
1.43871e-08
1.75686e-08
1.90946e-08
1.8864e-08
1.68605e-08
1.31322e-08
7.87094e-09
7.38819e-10
1.95453e-05
1.95321e-05
1.94983e-05
1.94432e-05
1.93651e-05
1.92596e-05
1.91209e-05
1.89415e-05
1.87123e-05
1.84218e-05
1.80556e-05
1.75962e-05
1.70222e-05
1.63079e-05
1.54234e-05
1.43341e-05
1.30018e-05
1.13859e-05
9.44653e-06
7.14863e-06
4.46848e-06
1.40222e-06
-2.02399e-06
-5.74323e-06
-9.63911e-06
-1.35423e-05
-1.72368e-05
-2.04792e-05
-2.30317e-05
-2.47039e-05
-2.53937e-05
-2.5112e-05
-2.39801e-05
-2.21993e-05
-2.00042e-05
-1.76168e-05
-1.52171e-05
-1.29325e-05
-1.08419e-05
-8.9853e-06
-7.37481e-06
-6.00365e-06
-4.85345e-06
-3.89996e-06
-3.11704e-06
-2.47932e-06
-1.96353e-06
-1.54898e-06
-1.2176e-06
-9.53876e-07
-7.44778e-07
-5.79711e-07
-4.50224e-07
-3.49565e-07
-2.72171e-07
-2.13271e-07
-1.68701e-07
-1.349e-07
-1.08989e-07
-8.87923e-08
-7.27749e-08
-5.98701e-08
-4.93025e-08
-4.04357e-08
-3.27089e-08
-2.56371e-08
-1.88577e-08
-1.21768e-08
-5.58586e-09
7.57079e-10
6.58335e-09
1.15778e-08
1.5444e-08
1.7948e-08
1.89388e-08
1.83504e-08
1.61871e-08
1.24964e-08
7.43896e-09
6.22455e-10
1.95912e-05
1.95794e-05
1.95493e-05
1.95003e-05
1.94303e-05
1.93355e-05
1.921e-05
1.90468e-05
1.88371e-05
1.85694e-05
1.82296e-05
1.78001e-05
1.72592e-05
1.65805e-05
1.57328e-05
1.46794e-05
1.33794e-05
1.17881e-05
9.86046e-06
7.55524e-06
4.84186e-06
1.7097e-06
-1.82039e-06
-5.68361e-06
-9.76038e-06
-1.3871e-05
-1.77809e-05
-2.12213e-05
-2.3926e-05
-2.568e-05
-2.63676e-05
-2.60016e-05
-2.47212e-05
-2.27557e-05
-2.03687e-05
-1.78053e-05
-1.5259e-05
-1.28623e-05
-1.06929e-05
-8.78676e-06
-7.1505e-06
-5.77163e-06
-4.62658e-06
-3.68661e-06
-2.92212e-06
-2.30518e-06
-1.81076e-06
-1.41698e-06
-1.10497e-06
-8.58731e-07
-6.65008e-07
-5.13199e-07
-3.95017e-07
-3.03937e-07
-2.34612e-07
-1.8243e-07
-1.43343e-07
-1.13903e-07
-9.13694e-08
-7.37492e-08
-5.97078e-08
-4.83705e-08
-3.91152e-08
-3.14073e-08
-2.47417e-08
-1.86579e-08
-1.28047e-08
-6.99868e-09
-1.24457e-09
4.28638e-09
9.31973e-09
1.35474e-08
1.66951e-08
1.8563e-08
1.90392e-08
1.80933e-08
1.5752e-08
1.20639e-08
7.16107e-09
5.95854e-10
1.96357e-05
1.96254e-05
1.95989e-05
1.95556e-05
1.94936e-05
1.9409e-05
1.92965e-05
1.91491e-05
1.89583e-05
1.8713e-05
1.8399e-05
1.79989e-05
1.74906e-05
1.68473e-05
1.60363e-05
1.50192e-05
1.37523e-05
1.21869e-05
1.0273e-05
7.96312e-06
5.21964e-06
2.0249e-06
-1.60607e-06
-5.61123e-06
-9.86844e-06
-1.4188e-05
-1.83168e-05
-2.19599e-05
-2.48215e-05
-2.66602e-05
-2.73454e-05
-2.6892e-05
-2.54583e-05
-2.33034e-05
-2.07215e-05
-1.79813e-05
-1.52896e-05
-1.2783e-05
-1.05377e-05
-8.58484e-06
-6.92522e-06
-5.54059e-06
-4.40205e-06
-3.47649e-06
-2.73089e-06
-2.13487e-06
-1.66174e-06
-1.28851e-06
-9.95566e-07
-7.66448e-07
-5.87712e-07
-4.48784e-07
-3.41564e-07
-2.59774e-07
-1.98282e-07
-1.52626e-07
-1.18859e-07
-9.36361e-08
-7.43575e-08
-5.92154e-08
-4.70832e-08
-3.72786e-08
-2.93263e-08
-2.27812e-08
-1.71791e-08
-1.20714e-08
-7.11097e-09
-2.12401e-09
2.86658e-09
7.66783e-09
1.19896e-08
1.55217e-08
1.80049e-08
1.92696e-08
1.92418e-08
1.79277e-08
1.5379e-08
1.16501e-08
6.853e-09
5.05067e-10
1.96778e-05
1.96688e-05
1.96458e-05
1.96079e-05
1.95534e-05
1.94786e-05
1.93782e-05
1.92458e-05
1.9073e-05
1.88489e-05
1.85596e-05
1.81876e-05
1.77107e-05
1.71013e-05
1.6326e-05
1.53445e-05
1.41104e-05
1.25715e-05
1.06729e-05
8.3609e-06
5.59115e-06
2.3388e-06
-1.38727e-06
-5.52829e-06
-9.96029e-06
-1.44843e-05
-1.88292e-05
-2.26741e-05
-2.56927e-05
-2.76166e-05
-2.82994e-05
-2.77582e-05
-2.6171e-05
-2.38275e-05
-2.10533e-05
-1.81406e-05
-1.53087e-05
-1.26978e-05
-1.03814e-05
-8.3857e-06
-6.70568e-06
-5.31722e-06
-4.1863e-06
-3.27553e-06
-2.54869e-06
-1.97312e-06
-1.52061e-06
-1.16714e-06
-8.92449e-07
-6.79641e-07
-5.15108e-07
-3.88337e-07
-2.91444e-07
-2.18407e-07
-1.64303e-07
-1.24802e-07
-9.60409e-08
-7.47611e-08
-5.85017e-08
-4.56422e-08
-3.5267e-08
-2.68845e-08
-2.01581e-08
-1.47192e-08
-1.01296e-08
-5.93962e-09
-1.798e-09
2.46145e-09
6.79411e-09
1.0978e-08
1.46979e-08
1.7633e-08
1.95318e-08
2.02503e-08
1.97505e-08
1.80758e-08
1.53057e-08
1.15046e-08
6.76619e-09
5.66174e-10
1.97165e-05
1.97088e-05
1.96889e-05
1.9656e-05
1.96084e-05
1.95424e-05
1.94533e-05
1.93346e-05
1.91783e-05
1.89738e-05
1.87073e-05
1.83612e-05
1.79134e-05
1.73358e-05
1.6594e-05
1.56462e-05
1.44436e-05
1.29307e-05
1.10481e-05
8.7364e-06
5.94465e-06
2.64105e-06
-1.17165e-06
-5.43838e-06
-1.0034e-05
-1.47514e-05
-1.93025e-05
-2.33412e-05
-2.65118e-05
-2.85187e-05
-2.91995e-05
-2.85732e-05
-2.68375e-05
-2.43127e-05
-2.13553e-05
-1.82799e-05
-1.53175e-05
-1.26105e-05
-1.02298e-05
-8.19624e-06
-6.49901e-06
-5.10851e-06
-3.98581e-06
-3.0896e-06
-2.38069e-06
-1.8244e-06
-1.39115e-06
-1.05607e-06
-7.98261e-07
-6.00471e-07
-4.48954e-07
-3.33281e-07
-2.458e-07
-1.80748e-07
-1.33399e-07
-9.95332e-08
-7.53463e-08
-5.76527e-08
-4.41182e-08
-3.33064e-08
-2.45092e-08
-1.742e-08
-1.18312e-08
-7.43724e-09
-3.81139e-09
-4.90705e-10
2.88885e-09
6.48962e-09
1.02443e-08
1.38975e-08
1.71025e-08
1.95202e-08
2.09006e-08
2.11204e-08
2.0175e-08
1.81448e-08
1.51396e-08
1.12385e-08
6.52878e-09
4.74107e-10
1.9751e-05
1.97443e-05
1.97272e-05
1.96987e-05
1.96571e-05
1.9599e-05
1.95197e-05
1.94132e-05
1.92716e-05
1.90844e-05
1.88381e-05
1.85153e-05
1.80935e-05
1.75444e-05
1.68327e-05
1.59156e-05
1.4742e-05
1.32535e-05
1.13866e-05
9.07709e-06
6.26778e-06
2.92046e-06
-9.68019e-07
-5.34633e-06
-1.00889e-05
-1.49815e-05
-1.97211e-05
-2.39384e-05
-2.725e-05
-2.93344e-05
-3.00138e-05
-2.93088e-05
-2.74358e-05
-2.47442e-05
-2.16194e-05
-1.8397e-05
-1.5318e-05
-1.25263e-05
-1.00897e-05
-8.02387e-06
-6.31277e-06
-4.92167e-06
-3.80726e-06
-2.92469e-06
-2.23217e-06
-1.69328e-06
-1.27732e-06
-9.58639e-07
-7.1584e-07
-5.31331e-07
-3.91259e-07
-2.85298e-07
-2.06031e-07
-1.47948e-07
-1.06502e-07
-7.75604e-08
-5.73557e-08
-4.27558e-08
-3.15393e-08
-2.2443e-08
-1.49562e-08
-8.94735e-09
-4.32628e-09
-8.39208e-10
1.93997e-09
4.49704e-09
7.21579e-09
1.02591e-08
1.35386e-08
1.67641e-08
1.95543e-08
2.15472e-08
2.24895e-08
2.22737e-08
2.09255e-08
1.8561e-08
1.53205e-08
1.13004e-08
6.58065e-09
5.96589e-10
1.97803e-05
1.97746e-05
1.97598e-05
1.9735e-05
1.96985e-05
1.9647e-05
1.95761e-05
1.94798e-05
1.93505e-05
1.91779e-05
1.89487e-05
1.86455e-05
1.82459e-05
1.77211e-05
1.70353e-05
1.61445e-05
1.49961e-05
1.35293e-05
1.1677e-05
9.37079e-06
6.54827e-06
3.16559e-06
-7.85711e-07
-5.25787e-06
-1.01253e-05
-1.51682e-05
-2.00708e-05
-2.44437e-05
-2.78788e-05
-3.00317e-05
-3.07106e-05
-2.99371e-05
-2.79443e-05
-2.51078e-05
-2.18388e-05
-1.84907e-05
-1.53131e-05
-1.24506e-05
-9.96773e-06
-7.87588e-06
-6.15413e-06
-4.76342e-06
-3.65669e-06
-2.78609e-06
-2.1077e-06
-1.58366e-06
-1.18235e-06
-8.77543e-07
-6.47387e-07
-4.7402e-07
-3.435e-07
-2.45608e-07
-1.73149e-07
-1.20846e-07
-8.4309e-08
-5.94676e-08
-4.25727e-08
-3.05259e-08
-2.1199e-08
-1.34817e-08
-7.04098e-09
-1.90266e-09
1.91972e-09
4.63852e-09
6.68643e-09
8.5777e-09
1.07207e-08
1.32836e-08
1.61607e-08
1.90302e-08
2.14768e-08
2.31148e-08
2.36843e-08
2.30899e-08
2.13835e-08
1.87139e-08
1.52518e-08
1.11128e-08
6.38069e-09
4.97197e-10
1.98039e-05
1.97989e-05
1.97859e-05
1.9764e-05
1.97315e-05
1.96852e-05
1.96208e-05
1.95326e-05
1.94129e-05
1.92519e-05
1.90362e-05
1.87485e-05
1.83663e-05
1.78607e-05
1.71956e-05
1.63259e-05
1.51979e-05
1.37487e-05
1.19089e-05
9.60639e-06
6.77478e-06
3.36561e-06
-6.3389e-07
-5.17905e-06
-1.01446e-05
-1.53066e-05
-2.03391e-05
-2.4837e-05
-2.83721e-05
-3.05811e-05
-3.12604e-05
-3.04322e-05
-2.83437e-05
-2.53915e-05
-2.20079e-05
-1.85609e-05
-1.53061e-05
-1.23888e-05
-9.87062e-06
-7.75919e-06
-6.02982e-06
-4.64e-06
-3.5397e-06
-2.67875e-06
-2.01156e-06
-1.49918e-06
-1.10934e-06
-8.1535e-07
-5.95026e-07
-4.3028e-07
-3.07106e-07
-2.15376e-07
-1.4809e-07
-1.00168e-07
-6.73488e-08
-4.56079e-08
-3.11993e-08
-2.10425e-08
-1.308e-08
-6.32615e-09
-5.96752e-10
3.94953e-09
7.21194e-09
9.36975e-09
1.08649e-08
1.22406e-08
1.39314e-08
1.61144e-08
1.86727e-08
2.12591e-08
2.343e-08
2.47785e-08
2.50382e-08
2.41227e-08
2.21065e-08
1.91667e-08
1.55013e-08
1.12438e-08
6.47731e-09
6.28725e-10
1.98212e-05
1.98167e-05
1.9805e-05
1.97852e-05
1.97554e-05
1.97128e-05
1.96529e-05
1.95703e-05
1.94574e-05
1.93045e-05
1.90982e-05
1.88213e-05
1.84514e-05
1.79594e-05
1.73087e-05
1.6454e-05
1.53405e-05
1.39042e-05
1.20737e-05
9.77463e-06
6.93769e-06
3.51123e-06
-5.20647e-07
-5.11553e-06
-1.01485e-05
-1.53931e-05
-2.05163e-05
-2.5102e-05
-2.8708e-05
-3.09573e-05
-3.16379e-05
-3.07724e-05
-2.86175e-05
-2.55852e-05
-2.21225e-05
-1.86075e-05
-1.53003e-05
-1.23458e-05
-9.80389e-06
-7.67948e-06
-5.94526e-06
-4.55634e-06
-3.46066e-06
-2.60643e-06
-1.94695e-06
-1.44255e-06
-1.06055e-06
-7.73932e-07
-5.60299e-07
-4.01398e-07
-2.83168e-07
-1.95552e-07
-1.31693e-07
-8.66593e-08
-5.62857e-08
-3.65788e-08
-2.37878e-08
-1.48369e-08
-7.71432e-09
-1.52322e-09
3.81049e-09
8.02761e-09
1.09604e-08
1.27627e-08
1.38844e-08
1.48939e-08
1.62495e-08
1.81402e-08
2.04449e-08
2.28008e-08
2.47448e-08
2.58552e-08
2.58612e-08
2.46842e-08
2.24163e-08
1.92581e-08
1.54304e-08
1.10833e-08
6.30636e-09
5.40886e-10
1.98319e-05
1.98277e-05
1.98166e-05
1.97979e-05
1.97697e-05
1.9729e-05
1.96716e-05
1.9592e-05
1.94829e-05
1.93342e-05
1.91331e-05
1.88621e-05
1.84987e-05
1.80141e-05
1.73713e-05
1.65248e-05
1.54194e-05
1.39903e-05
1.21653e-05
9.86879e-06
7.02997e-06
3.59551e-06
-4.52136e-07
-5.07182e-06
-1.0139e-05
-1.54257e-05
-2.05958e-05
-2.52272e-05
-2.88708e-05
-3.11421e-05
-3.18249e-05
-3.09417e-05
-2.87541e-05
-2.5682e-05
-2.21799e-05
-1.86312e-05
-1.5298e-05
-1.23252e-05
-9.77164e-06
-7.64091e-06
-5.9044e-06
-4.51602e-06
-3.4227e-06
-2.57184e-06
-1.91618e-06
-1.41573e-06
-1.03757e-06
-7.54581e-07
-5.44225e-07
-3.8816e-07
-2.72289e-07
-1.86584e-07
-1.2427e-07
-8.05039e-08
-5.11799e-08
-3.23238e-08
-2.01792e-08
-1.16675e-08
-4.79723e-09
1.27998e-09
6.57371e-09
1.07624e-08
1.36346e-08
1.53254e-08
1.6289e-08
1.71106e-08
1.82677e-08
1.99623e-08
2.20774e-08
2.42462e-08
2.59984e-08
2.69074e-08
2.67025e-08
2.53127e-08
2.28437e-08
1.95134e-08
1.55593e-08
1.11433e-08
6.35477e-09
6.31877e-10
1.98358e-05
1.98315e-05
1.98206e-05
1.9802e-05
1.9774e-05
1.97336e-05
1.96765e-05
1.95973e-05
1.94886e-05
1.93406e-05
1.914e-05
1.88697e-05
1.85071e-05
1.80234e-05
1.73816e-05
1.65362e-05
1.54319e-05
1.4004e-05
1.21803e-05
9.88522e-06
7.04777e-06
3.61463e-06
-4.31833e-07
-5.05057e-06
-1.01171e-05
-1.54037e-05
-2.05744e-05
-2.5207e-05
-2.88524e-05
-3.11262e-05
-3.18118e-05
-3.09317e-05
-2.87472e-05
-2.5678e-05
-2.21786e-05
-1.86321e-05
-1.53004e-05
-1.23288e-05
-9.77594e-06
-7.64557e-06
-5.9092e-06
-4.52082e-06
-3.42739e-06
-2.57635e-06
-1.92045e-06
-1.41973e-06
-1.0413e-06
-7.58059e-07
-5.47465e-07
-3.91157e-07
-2.75011e-07
-1.8899e-07
-1.26325e-07
-8.21936e-08
-5.25101e-08
-3.33095e-08
-2.08332e-08
-1.19948e-08
-4.7982e-09
1.59967e-09
7.19361e-09
1.16419e-08
1.47147e-08
1.65356e-08
1.7557e-08
1.83711e-08
1.94671e-08
2.10606e-08
2.30463e-08
2.50671e-08
2.66594e-08
2.74029e-08
2.70332e-08
2.54876e-08
2.28815e-08
1.94432e-08
1.54204e-08
1.09817e-08
6.21924e-09
5.82375e-10
1.98327e-05
1.98283e-05
1.98169e-05
1.97975e-05
1.97684e-05
1.97265e-05
1.96676e-05
1.95862e-05
1.94747e-05
1.93233e-05
1.91189e-05
1.88441e-05
1.84765e-05
1.79872e-05
1.73394e-05
1.64879e-05
1.53779e-05
1.39453e-05
1.21187e-05
9.82369e-06
6.99081e-06
3.56825e-06
-4.60135e-07
-5.05223e-06
-1.00835e-05
-1.53278e-05
-2.04526e-05
-2.50417e-05
-2.86532e-05
-3.09098e-05
-3.15989e-05
-3.07426e-05
-2.8597e-05
-2.55734e-05
-2.21184e-05
-1.86099e-05
-1.53075e-05
-1.23564e-05
-9.81653e-06
-7.69323e-06
-5.95945e-06
-4.57053e-06
-3.47454e-06
-2.61977e-06
-1.95958e-06
-1.45437e-06
-1.07155e-06
-7.84167e-07
-5.69807e-07
-4.10156e-07
-2.91085e-07
-2.02501e-07
-1.37572e-07
-9.14254e-08
-5.99541e-08
-3.91933e-08
-2.53863e-08
-1.54358e-08
-7.31806e-09
-1.52237e-10
6.09151e-09
1.10942e-08
1.46335e-08
1.6829e-08
1.81255e-08
1.91109e-08
2.02788e-08
2.18582e-08
2.37638e-08
2.56615e-08
2.71099e-08
2.7707e-08
2.72024e-08
2.55427e-08
2.28495e-08
1.93551e-08
1.53095e-08
1.08822e-08
6.16273e-09
6.05081e-10
1.9823e-05
1.98182e-05
1.98056e-05
1.97845e-05
1.9753e-05
1.9708e-05
1.96452e-05
1.95589e-05
1.94416e-05
1.92832e-05
1.90706e-05
1.87863e-05
1.8408e-05
1.79068e-05
1.72464e-05
1.6382e-05
1.52596e-05
1.38166e-05
1.19832e-05
9.68732e-06
6.86233e-06
3.45951e-06
-5.34337e-07
-5.07501e-06
-1.00378e-05
-1.51995e-05
-2.02345e-05
-2.47381e-05
-2.82823e-05
-3.0503e-05
-3.11962e-05
-3.0383e-05
-2.83095e-05
-2.53716e-05
-2.20006e-05
-1.85641e-05
-1.53174e-05
-1.24057e-05
-9.89098e-06
-7.78148e-06
-6.05293e-06
-4.6632e-06
-3.56248e-06
-2.70071e-06
-2.03241e-06
-1.51875e-06
-1.12761e-06
-8.32381e-07
-6.10878e-07
-4.44914e-07
-3.20368e-07
-2.27061e-07
-1.58027e-07
-1.08278e-07
-7.36484e-08
-5.01597e-08
-3.406e-08
-2.22372e-08
-1.26176e-08
-4.24375e-09
2.99594e-09
8.84548e-09
1.31148e-08
1.59274e-08
1.7715e-08
1.90516e-08
2.04279e-08
2.20862e-08
2.3969e-08
2.57782e-08
2.71087e-08
2.75891e-08
2.69898e-08
2.52685e-08
2.25495e-08
1.90627e-08
1.50534e-08
1.06862e-08
6.04644e-09
5.92439e-10
1.98069e-05
1.98014e-05
1.97872e-05
1.97635e-05
1.97284e-05
1.96787e-05
1.961e-05
1.95164e-05
1.93903e-05
1.92214e-05
1.89964e-05
1.8698e-05
1.83037e-05
1.77849e-05
1.71057e-05
1.62222e-05
1.50816e-05
1.36231e-05
1.17796e-05
9.4824e-06
6.66886e-06
3.29473e-06
-6.48986e-07
-5.11518e-06
-9.97906e-06
-1.50217e-05
-1.99278e-05
-2.43085e-05
-2.77559e-05
-2.99248e-05
-3.06225e-05
-2.98692e-05
-2.78968e-05
-2.50796e-05
-2.18277e-05
-1.8494e-05
-1.53273e-05
-1.24726e-05
-9.99479e-06
-7.9058e-06
-6.18536e-06
-4.79492e-06
-3.68774e-06
-2.81615e-06
-2.13633e-06
-1.6106e-06
-1.20756e-06
-9.01069e-07
-6.69292e-07
-4.9424e-07
-3.61823e-07
-2.61753e-07
-1.86875e-07
-1.32033e-07
-9.29614e-08
-6.5656e-08
-4.63657e-08
-3.19577e-08
-2.02884e-08
-1.02894e-08
-1.72756e-09
5.2393e-09
1.04762e-08
1.41182e-08
1.65816e-08
1.84194e-08
2.01142e-08
2.19226e-08
2.38217e-08
2.55615e-08
2.67857e-08
2.71643e-08
2.64951e-08
2.4748e-08
2.20473e-08
1.86147e-08
1.46846e-08
1.04117e-08
5.87551e-09
5.4469e-10
1.97848e-05
1.97785e-05
1.97622e-05
1.9735e-05
1.96952e-05
1.96394e-05
1.9563e-05
1.94599e-05
1.93223e-05
1.91397e-05
1.88988e-05
1.8582e-05
1.8167e-05
1.76255e-05
1.69221e-05
1.6014e-05
1.48502e-05
1.33721e-05
1.15161e-05
9.21778e-06
6.41953e-06
3.08269e-06
-7.96568e-07
-5.16773e-06
-9.90612e-06
-1.47986e-05
-1.95428e-05
-2.377e-05
-2.70966e-05
-2.92007e-05
-2.99032e-05
-2.9223e-05
-2.73751e-05
-2.47073e-05
-2.16037e-05
-1.83991e-05
-1.5334e-05
-1.25523e-05
-1.01222e-05
-8.06029e-06
-6.35113e-06
-4.96064e-06
-3.8459e-06
-2.96227e-06
-2.26815e-06
-1.72729e-06
-1.30925e-06
-9.8852e-07
-7.43714e-07
-5.57103e-07
-4.1466e-07
-3.05973e-07
-2.23669e-07
-1.62378e-07
-1.17702e-07
-8.5593e-08
-6.22912e-08
-4.46339e-08
-3.03909e-08
-1.83565e-08
-8.14525e-09
2.11002e-10
6.65133e-09
1.13309e-08
1.46507e-08
1.71392e-08
1.92684e-08
2.13105e-08
2.32838e-08
2.4995e-08
2.61471e-08
2.64594e-08
2.5762e-08
2.4038e-08
2.14092e-08
1.80844e-08
1.42819e-08
1.01424e-08
5.73678e-09
5.34956e-10
1.97574e-05
1.97501e-05
1.97312e-05
1.96999e-05
1.96544e-05
1.95912e-05
1.95055e-05
1.93909e-05
1.92395e-05
1.90405e-05
1.87804e-05
1.84417e-05
1.8002e-05
1.74334e-05
1.67014e-05
1.57644e-05
1.45734e-05
1.30728e-05
1.12029e-05
8.90426e-06
6.12536e-06
2.83383e-06
-9.68362e-07
-5.22705e-06
-9.81818e-06
-1.45356e-05
-1.90924e-05
-2.31428e-05
-2.6331e-05
-2.83608e-05
-2.90683e-05
-2.84707e-05
-2.67641e-05
-2.42669e-05
-2.13343e-05
-1.82798e-05
-1.53339e-05
-1.2639e-05
-1.02664e-05
-8.23787e-06
-6.54335e-06
-5.15393e-06
-4.03116e-06
-3.13399e-06
-2.42341e-06
-1.86498e-06
-1.42939e-06
-1.09195e-06
-8.31791e-07
-6.31506e-07
-4.77167e-07
-3.58247e-07
-2.67135e-07
-1.98221e-07
-1.46945e-07
-1.09192e-07
-8.11799e-08
-5.97044e-08
-4.24346e-08
-2.80092e-08
-1.58693e-08
-5.90054e-09
1.92604e-09
7.79534e-09
1.20969e-08
1.53358e-08
1.79743e-08
2.03027e-08
2.2385e-08
2.40917e-08
2.51915e-08
2.54586e-08
2.47582e-08
2.30871e-08
2.05623e-08
1.73767e-08
1.37291e-08
9.74428e-09
5.48617e-09
4.39246e-10
1.97255e-05
1.9717e-05
1.96952e-05
1.96591e-05
1.96071e-05
1.95355e-05
1.94391e-05
1.93114e-05
1.91442e-05
1.89266e-05
1.86448e-05
1.82811e-05
1.78135e-05
1.72145e-05
1.64505e-05
1.54813e-05
1.42604e-05
1.27354e-05
1.08511e-05
8.55379e-06
5.79833e-06
2.55928e-06
-1.1553e-06
-5.28771e-06
-9.71509e-06
-1.42396e-05
-1.85912e-05
-2.24493e-05
-2.54877e-05
-2.74371e-05
-2.81495e-05
-2.76402e-05
-2.60853e-05
-2.37726e-05
-2.10262e-05
-1.81371e-05
-1.53241e-05
-1.27272e-05
-1.04206e-05
-8.4312e-06
-6.75478e-06
-5.36804e-06
-4.23745e-06
-3.32595e-06
-2.59753e-06
-2.01979e-06
-1.5648e-06
-1.20875e-06
-9.31423e-07
-7.15781e-07
-5.48029e-07
-4.17544e-07
-3.1648e-07
-2.3897e-07
-1.80272e-07
-1.36178e-07
-1.02866e-07
-7.70781e-08
-5.63726e-08
-3.92236e-08
-2.4888e-08
-1.30926e-08
-3.70662e-09
3.49472e-09
8.89684e-09
1.2986e-08
1.6218e-08
1.89036e-08
2.11559e-08
2.29117e-08
2.40085e-08
2.42776e-08
2.36202e-08
2.20464e-08
1.96673e-08
1.6658e-08
1.31961e-08
9.38946e-09
5.29406e-09
3.99302e-10
1.96899e-05
1.96801e-05
1.9655e-05
1.96138e-05
1.95546e-05
1.94736e-05
1.93655e-05
1.92236e-05
1.90391e-05
1.88011e-05
1.84955e-05
1.81048e-05
1.7607e-05
1.69751e-05
1.61768e-05
1.51734e-05
1.39209e-05
1.23709e-05
1.04728e-05
8.17873e-06
5.45065e-06
2.27013e-06
-1.34873e-06
-5.345e-06
-9.5977e-06
-1.39183e-05
-1.80547e-05
-2.17125e-05
-2.45955e-05
-2.64617e-05
-2.71788e-05
-2.67598e-05
-2.53609e-05
-2.32394e-05
-2.06877e-05
-1.79734e-05
-1.53027e-05
-1.28121e-05
-1.05782e-05
-8.63287e-06
-6.97789e-06
-5.59572e-06
-4.45807e-06
-3.53214e-06
-2.78517e-06
-2.18707e-06
-1.71143e-06
-1.33547e-06
-1.03967e-06
-8.07422e-07
-6.25106e-07
-4.82032e-07
-3.70132e-07
-2.83281e-07
-2.16538e-07
-1.65579e-07
-1.26523e-07
-9.60448e-08
-7.15875e-08
-5.1459e-08
-3.47286e-08
-2.0958e-08
-9.90476e-09
-1.29324e-09
5.26833e-09
1.02556e-08
1.41227e-08
1.72043e-08
1.96629e-08
2.15019e-08
2.26272e-08
2.29263e-08
2.23361e-08
2.08795e-08
1.86613e-08
1.58386e-08
1.25681e-08
8.94223e-09
5.01269e-09
2.86656e-10
1.96516e-05
1.96404e-05
1.96118e-05
1.9565e-05
1.94982e-05
1.94073e-05
1.92868e-05
1.91296e-05
1.89269e-05
1.86673e-05
1.83367e-05
1.79175e-05
1.73881e-05
1.6722e-05
1.58881e-05
1.48496e-05
1.35652e-05
1.19904e-05
1.00796e-05
7.7912e-06
5.09402e-06
1.97666e-06
-1.54099e-06
-5.39528e-06
-9.46783e-06
-1.35801e-05
-1.74985e-05
-2.09546e-05
-2.36822e-05
-2.54653e-05
-2.61864e-05
-2.58566e-05
-2.46129e-05
-2.26826e-05
-2.03278e-05
-1.77922e-05
-1.52688e-05
-1.28898e-05
-1.07333e-05
-8.8361e-06
-7.20557e-06
-5.83005e-06
-4.68654e-06
-3.7467e-06
-2.98119e-06
-2.36237e-06
-1.8655e-06
-1.46895e-06
-1.15392e-06
-9.04311e-07
-7.06695e-07
-5.50357e-07
-4.27032e-07
-3.30344e-07
-2.5514e-07
-1.96964e-07
-1.51855e-07
-1.16411e-07
-8.7962e-08
-6.4652e-08
-4.53671e-08
-2.95026e-08
-1.66976e-08
-6.61465e-09
1.15585e-09
7.0882e-09
1.16409e-08
1.51736e-08
1.78969e-08
1.98777e-08
2.10865e-08
2.14645e-08
2.09825e-08
1.96754e-08
1.76419e-08
1.50225e-08
1.19549e-08
8.51795e-09
4.76064e-09
2.03316e-10
1.96115e-05
1.95989e-05
1.95667e-05
1.95141e-05
1.94394e-05
1.93384e-05
1.9205e-05
1.90321e-05
1.88105e-05
1.85288e-05
1.81725e-05
1.77243e-05
1.71627e-05
1.6462e-05
1.55922e-05
1.45187e-05
1.32031e-05
1.16046e-05
9.68294e-06
7.40256e-06
4.73914e-06
1.68798e-06