# Force       
# CofR        : (0.000000e+00 0.000000e+00 0.000000e+00)
#
# Time        	total_x total_y total_z	pressure_x pressure_y pressure_z	viscous_x viscous_y viscous_z
1              4.954421e-01 7.029037e-04 1.036731e+00 4.204363e-01 7.000531e-04 1.036126e+00 7.500578e-02 2.850644e-06 6.049776e-04
2              5.764346e-01 3.734815e-04 1.334624e+00 5.040649e-01 3.667597e-04 1.334984e+00 7.236967e-02 6.721747e-06 -3.602094e-04
3              5.148782e-01 1.569493e-04 1.214945e+00 4.442554e-01 1.483282e-04 1.216228e+00 7.062286e-02 8.621112e-06 -1.282899e-03
4              3.816583e-01 1.577498e-04 8.617434e-01 3.123042e-01 1.489913e-04 8.637279e-01 6.935410e-02 8.758491e-06 -1.984541e-03
5              2.299657e-01 1.867063e-04 4.327749e-01 1.615511e-01 1.786769e-04 4.351586e-01 6.841464e-02 8.029425e-06 -2.383681e-03
6              9.804534e-02 1.923004e-04 4.500617e-02 3.033074e-02 1.850168e-04 4.748464e-02 6.771460e-02 7.283613e-06 -2.478472e-03
7              7.174502e-03 1.533249e-04 -2.275240e-01 -5.999900e-02 1.465688e-04 -2.251945e-01 6.717350e-02 6.756048e-06 -2.329508e-03
8              -3.669093e-02 6.960169e-05 -3.546581e-01 -1.034092e-01 6.329687e-05 -3.526264e-01 6.671827e-02 6.304820e-06 -2.031621e-03
9              -3.911862e-02 8.796940e-05 -3.484181e-01 -1.054142e-01 8.207803e-05 -3.467327e-01 6.629556e-02 5.891371e-06 -1.685439e-03
10             -1.490713e-02 -7.945119e-05 -2.487264e-01 -8.076953e-02 -8.493390e-05 -2.473513e-01 6.586240e-02 5.482710e-06 -1.375074e-03
11             2.255123e-02 -2.302777e-04 -1.068489e-01 -4.284905e-02 -2.354472e-04 -1.056936e-01 6.540029e-02 5.169456e-06 -1.155296e-03
12             6.076735e-02 -3.196407e-04 3.049704e-02 -4.139114e-03 -3.246158e-04 3.154626e-02 6.490646e-02 4.975098e-06 -1.049228e-03
13             9.135497e-02 -3.267422e-04 1.318686e-01 2.696504e-02 -3.316176e-04 1.329194e-01 6.438993e-02 4.875325e-06 -1.050813e-03
14             1.089126e-01 -2.843694e-04 1.784616e-01 4.504762e-02 -2.891760e-04 1.795974e-01 6.386496e-02 4.806561e-06 -1.135845e-03
15             1.160647e-01 -2.178620e-04 1.853955e-01 5.271962e-02 -2.225715e-04 1.866582e-01 6.334506e-02 4.709461e-06 -1.262642e-03
16             1.154575e-01 -1.410111e-04 1.645050e-01 5.260702e-02 -1.455973e-04 1.658962e-01 6.285045e-02 4.586214e-06 -1.391139e-03
17             1.096997e-01 -5.563683e-05 1.263719e-01 4.730881e-02 -6.013946e-05 1.278648e-01 6.239086e-02 4.502634e-06 -1.492833e-03
18             1.005822e-01 8.304659e-05 7.690529e-02 3.861517e-02 7.851545e-05 7.846135e-02 6.196704e-02 4.531138e-06 -1.556055e-03
19             9.153371e-02 1.569244e-04 3.672680e-02 2.996155e-02 1.522817e-04 3.830264e-02 6.157217e-02 4.642731e-06 -1.575843e-03
20             8.487560e-02 1.444176e-04 1.529298e-02 2.366997e-02 1.396567e-04 1.684854e-02 6.120563e-02 4.760974e-06 -1.555556e-03
21             8.032577e-02 1.087063e-04 7.212077e-03 1.946191e-02 1.038188e-04 8.721074e-03 6.086385e-02 4.887562e-06 -1.508996e-03
22             7.787483e-02 6.486672e-05 1.008915e-02 1.733706e-02 5.984439e-05 1.154062e-02 6.053777e-02 5.022335e-06 -1.451466e-03
23             7.710365e-02 2.379188e-05 2.022603e-02 1.688122e-02 1.864551e-05 2.162187e-02 6.022243e-02 5.146374e-06 -1.395836e-03
24             7.746999e-02 -6.704111e-06 3.361166e-02 1.755523e-02 -1.195175e-05 3.496229e-02 5.991476e-02 5.247639e-06 -1.350624e-03
25             7.840121e-02 -2.254732e-05 4.651929e-02 1.878820e-02 -2.785899e-05 4.783887e-02 5.961301e-02 5.311672e-06 -1.319580e-03
26             7.941241e-02 -2.479611e-05 5.630091e-02 2.009565e-02 -3.013550e-05 5.760326e-02 5.931676e-02 5.339393e-06 -1.302346e-03
27             8.018152e-02 -1.859924e-05 6.174670e-02 2.115504e-02 -2.394029e-05 6.304237e-02 5.902648e-02 5.341044e-06 -1.295670e-03
28             8.066882e-02 -2.657320e-05 6.342683e-02 2.192564e-02 -3.187349e-05 6.472139e-02 5.874319e-02 5.300291e-06 -1.294562e-03
29             8.064521e-02 -1.877701e-05 6.122430e-02 2.217713e-02 -2.403893e-05 6.251909e-02 5.846808e-02 5.261918e-06 -1.294792e-03
30             8.030596e-02 -1.674805e-05 5.683288e-02 2.210490e-02 -2.198693e-05 5.812573e-02 5.820105e-02 5.238879e-06 -1.292859e-03
31             7.976274e-02 -2.118803e-05 5.159143e-02 2.181971e-02 -2.639932e-05 5.287823e-02 5.794302e-02 5.211291e-06 -1.286793e-03
32             7.914837e-02 -3.017087e-05 4.684237e-02 2.145432e-02 -3.534220e-05 4.811832e-02 5.769404e-02 5.171329e-06 -1.275952e-03
33             7.855517e-02 -4.040957e-05 4.333220e-02 2.110138e-02 -4.554100e-05 4.459334e-02 5.745379e-02 5.131422e-06 -1.261145e-03
34             7.803833e-02 -4.848965e-05 4.131912e-02 2.081644e-02 -5.358137e-05 4.256271e-02 5.722189e-02 5.091719e-06 -1.243597e-03
35             7.761546e-02 -5.189449e-05 4.065985e-02 2.061769e-02 -5.695012e-05 4.188466e-02 5.699778e-02 5.055629e-06 -1.224808e-03
36             7.728027e-02 -4.922989e-05 4.102944e-02 2.049938e-02 -5.424772e-05 4.223556e-02 5.678089e-02 5.017829e-06 -1.206127e-03
37             7.701143e-02 -4.078214e-05 4.200350e-02 2.044070e-02 -4.577475e-05 4.319200e-02 5.657073e-02 4.992607e-06 -1.188501e-03
38             7.678146e-02 -2.852067e-05 4.315775e-02 2.041464e-02 -3.350142e-05 4.433016e-02 5.636682e-02 4.980749e-06 -1.172408e-03
39             7.656438e-02 -1.535041e-05 4.414882e-02 2.039559e-02 -2.032460e-05 4.530673e-02 5.616879e-02 4.974194e-06 -1.157912e-03
40             7.634078e-02 -4.181117e-06 4.475779e-02 2.036440e-02 -9.162810e-06 4.590255e-02 5.597638e-02 4.981692e-06 -1.144761e-03
41             7.609973e-02 2.737971e-06 4.489255e-02 2.031048e-02 -2.261020e-06 4.602508e-02 5.578925e-02 4.998991e-06 -1.132525e-03
42             7.584112e-02 4.411982e-06 4.457679e-02 2.023389e-02 -6.070865e-07 4.569754e-02 5.560722e-02 5.019068e-06 -1.120749e-03
43             7.557173e-02 1.359117e-06 4.393998e-02 2.014151e-02 -3.680876e-06 4.504901e-02 5.543022e-02 5.039993e-06 -1.109037e-03
44             7.529758e-02 -5.180295e-06 4.312593e-02 2.003943e-02 -1.023920e-05 4.422305e-02 5.525815e-02 5.058901e-06 -1.097116e-03
45             7.502442e-02 -1.355772e-05 4.225520e-02 1.993343e-02 -1.863441e-05 4.334008e-02 5.509099e-02 5.076690e-06 -1.084876e-03
46             7.475791e-02 -2.189980e-05 4.142392e-02 1.982932e-02 -2.699191e-05 4.249627e-02 5.492859e-02 5.092109e-06 -1.072347e-03
47             7.450226e-02 -2.851163e-05 4.069392e-02 1.973142e-02 -3.361488e-05 4.175357e-02 5.477084e-02 5.103247e-06 -1.059656e-03
48             7.426007e-02 -3.211851e-05 4.009657e-02 1.964255e-02 -3.722791e-05 4.114353e-02 5.461752e-02 5.109402e-06 -1.046957e-03
49             7.403409e-02 -3.234218e-05 3.965629e-02 1.956561e-02 -3.745599e-05 4.069068e-02 5.446848e-02 5.113812e-06 -1.034386e-03
50             7.382680e-02 -2.955368e-05 3.934953e-02 1.950320e-02 -3.466949e-05 4.037158e-02 5.432360e-02 5.115810e-06 -1.022052e-03
51             7.363263e-02 -2.547712e-05 3.912768e-02 1.944979e-02 -3.059360e-05 4.013771e-02 5.418284e-02 5.116487e-06 -1.010032e-03
52             7.344492e-02 -2.131164e-05 3.892948e-02 1.939887e-02 -2.643002e-05 3.992782e-02 5.404605e-02 5.118384e-06 -9.983386e-04
53             7.325876e-02 -1.786202e-05 3.870999e-02 1.934571e-02 -2.298083e-05 3.969694e-02 5.391305e-02 5.118811e-06 -9.869462e-04
54             7.307166e-02 -1.568714e-05 3.844483e-02 1.928796e-02 -2.080528e-05 3.942064e-02 5.378370e-02 5.118137e-06 -9.758077e-04
55             7.288305e-02 -1.503817e-05 3.812601e-02 1.922513e-02 -2.015450e-05 3.909090e-02 5.365792e-02 5.116326e-06 -9.648823e-04
56             7.269356e-02 -1.584073e-05 3.775754e-02 1.915806e-02 -2.095410e-05 3.871168e-02 5.353550e-02 5.113372e-06 -9.541341e-04
57             7.250501e-02 -1.772729e-05 3.735500e-02 1.908867e-02 -2.283710e-05 3.829854e-02 5.341634e-02 5.109813e-06 -9.435422e-04
58             7.232008e-02 -2.008736e-05 3.694356e-02 1.901970e-02 -2.519370e-05 3.787666e-02 5.330038e-02 5.106343e-06 -9.331007e-04
59             7.214112e-02 -2.225716e-05 3.654874e-02 1.895359e-02 -2.736008e-05 3.747155e-02 5.318752e-02 5.102913e-06 -9.228030e-04
60             7.196912e-02 -2.379135e-05 3.618517e-02 1.889150e-02 -2.889215e-05 3.709782e-02 5.307763e-02 5.100798e-06 -9.126501e-04
61             7.180356e-02 -2.455764e-05 3.585305e-02 1.883299e-02 -2.965737e-05 3.675570e-02 5.297057e-02 5.099726e-06 -9.026496e-04
62             7.164303e-02 -2.464765e-05 3.554339e-02 1.877678e-02 -2.974759e-05 3.643620e-02 5.286625e-02 5.099938e-06 -8.928143e-04
63             7.148618e-02 -2.427289e-05 3.524555e-02 1.872156e-02 -2.937215e-05 3.612871e-02 5.276462e-02 5.099260e-06 -8.831616e-04
64             7.133209e-02 -2.367691e-05 3.495140e-02 1.866648e-02 -2.877533e-05 3.582510e-02 5.266561e-02 5.098428e-06 -8.737021e-04
65             7.118036e-02 -2.308496e-05 3.465620e-02 1.861123e-02 -2.818251e-05 3.552064e-02 5.256913e-02 5.097544e-06 -8.644401e-04
66             7.103094e-02 -2.266596e-05 3.435799e-02 1.855584e-02 -2.776176e-05 3.521337e-02 5.247510e-02 5.095798e-06 -8.553769e-04
67             7.088402e-02 -2.250950e-05 3.405681e-02 1.850060e-02 -2.760364e-05 3.490332e-02 5.238342e-02 5.094146e-06 -8.465056e-04
68             7.074001e-02 -2.262552e-05 3.375451e-02 1.844593e-02 -2.771893e-05 3.459234e-02 5.229408e-02 5.093408e-06 -8.378238e-04
69             7.059939e-02 -2.296626e-05 3.345508e-02 1.839241e-02 -2.805804e-05 3.428440e-02 5.220698e-02 5.091785e-06 -8.293231e-04
70             7.046272e-02 -2.344144e-05 3.316427e-02 1.834072e-02 -2.852999e-05 3.398527e-02 5.212201e-02 5.088547e-06 -8.209939e-04
71             7.033037e-02 -2.394981e-05 3.288682e-02 1.829125e-02 -2.903397e-05 3.369964e-02 5.203912e-02 5.084153e-06 -8.128276e-04
72             7.020217e-02 -2.440576e-05 3.262339e-02 1.824394e-02 -2.948652e-05 3.342820e-02 5.195824e-02 5.080759e-06 -8.048153e-04
73             7.007759e-02 -2.476084e-05 3.237073e-02 1.819825e-02 -2.983898e-05 3.316769e-02 5.187934e-02 5.078141e-06 -7.969544e-04
74             6.995602e-02 -2.500454e-05 3.212414e-02 1.815358e-02 -3.007992e-05 3.291339e-02 5.180244e-02 5.075375e-06 -7.892483e-04
75             6.983695e-02 -2.514927e-05 3.187977e-02 1.810946e-02 -3.022266e-05 3.266147e-02 5.172749e-02 5.073396e-06 -7.816989e-04
76             6.972009e-02 -2.522430e-05 3.163564e-02 1.806569e-02 -3.029493e-05 3.240994e-02 5.165440e-02 5.070629e-06 -7.743043e-04
77             6.960543e-02 -2.526193e-05 3.139153e-02 1.802231e-02 -3.032939e-05 3.215859e-02 5.158312e-02 5.067462e-06 -7.670641e-04
78             6.949065e-02 -2.544846e-05 3.114579e-02 1.797703e-02 -3.051237e-05 3.190577e-02 5.151361e-02 5.063914e-06 -7.599823e-04
79             6.937728e-02 -2.562979e-05 3.090102e-02 1.793145e-02 -3.069055e-05 3.165405e-02 5.144583e-02 5.060757e-06 -7.530355e-04
80             6.926659e-02 -2.569835e-05 3.065925e-02 1.788687e-02 -3.075590e-05 3.140548e-02 5.137972e-02 5.057550e-06 -7.462285e-04
81             6.915943e-02 -2.561972e-05 3.042214e-02 1.784415e-02 -3.067398e-05 3.116171e-02 5.131528e-02 5.054266e-06 -7.395656e-04
82             6.905614e-02 -2.542717e-05 3.019112e-02 1.780372e-02 -3.047843e-05 3.092417e-02 5.125243e-02 5.051257e-06 -7.330510e-04
83             6.895676e-02 -2.520150e-05 2.996734e-02 1.776564e-02 -3.025019e-05 3.069403e-02 5.119112e-02 5.048697e-06 -7.266863e-04
84             6.886104e-02 -2.503093e-05 2.975151e-02 1.772970e-02 -3.007716e-05 3.047198e-02 5.113135e-02 5.046229e-06 -7.204686e-04
85             6.876863e-02 -2.497781e-05 2.954353e-02 1.769554e-02 -3.002239e-05 3.025792e-02 5.107308e-02 5.044589e-06 -7.143959e-04
86             6.867906e-02 -2.506401e-05 2.934254e-02 1.766276e-02 -3.010782e-05 3.005100e-02 5.101630e-02 5.043809e-06 -7.084654e-04
87             6.859194e-02 -2.527206e-05 2.914721e-02 1.763095e-02 -3.031523e-05 2.984988e-02 5.096098e-02 5.043170e-06 -7.026717e-04
88             6.850693e-02 -2.555515e-05 2.895615e-02 1.759986e-02 -3.059771e-05 2.965315e-02 5.090707e-02 5.042561e-06 -6.970065e-04
89             6.841885e-02 -2.564821e-05 2.874194e-02 1.756432e-02 -3.069088e-05 2.943434e-02 5.085453e-02 5.042665e-06 -6.923999e-04
90             6.832998e-02 -2.568845e-05 2.851782e-02 1.752670e-02 -3.073174e-05 2.920563e-02 5.080328e-02 5.043291e-06 -6.878102e-04
91             6.824257e-02 -2.576104e-05 2.829574e-02 1.748927e-02 -3.080516e-05 2.897895e-02 5.075331e-02 5.044127e-06 -6.832158e-04
92             6.815845e-02 -2.591349e-05 2.808550e-02 1.745384e-02 -3.095751e-05 2.876413e-02 5.070461e-02 5.044021e-06 -6.786235e-04
93             6.807870e-02 -2.614420e-05 2.789287e-02 1.742155e-02 -3.118793e-05 2.856692e-02 5.065715e-02 5.043735e-06 -6.740523e-04
94             6.800368e-02 -2.641513e-05 2.771939e-02 1.739278e-02 -3.145909e-05 2.838891e-02 5.061090e-02 5.043962e-06 -6.695267e-04
95             6.793318e-02 -2.667469e-05 2.756327e-02 1.736736e-02 -3.171892e-05 2.822834e-02 5.056582e-02 5.044230e-06 -6.650712e-04
96             6.786660e-02 -2.687391e-05 2.742068e-02 1.734472e-02 -3.191842e-05 2.808139e-02 5.052188e-02 5.044512e-06 -6.607060e-04
97             6.780317e-02 -2.698115e-05 2.728698e-02 1.732411e-02 -3.202620e-05 2.794342e-02 5.047906e-02 5.045051e-06 -6.564451e-04
98             6.774212e-02 -2.698837e-05 2.715773e-02 1.730476e-02 -3.203347e-05 2.781003e-02 5.043736e-02 5.045106e-06 -6.522964e-04
99             6.768276e-02 -2.690712e-05 2.702938e-02 1.728602e-02 -3.195235e-05 2.767764e-02 5.039674e-02 5.045229e-06 -6.482587e-04
100            6.762461e-02 -2.676425e-05 2.689955e-02 1.726743e-02 -3.180990e-05 2.754388e-02 5.035718e-02 5.045646e-06 -6.443264e-04
101            6.756741e-02 -2.659313e-05 2.676711e-02 1.724873e-02 -3.163983e-05 2.740761e-02 5.031868e-02 5.046707e-06 -6.404912e-04
102            6.751108e-02 -2.642566e-05 2.663209e-02 1.722988e-02 -3.147415e-05 2.726883e-02 5.028120e-02 5.048493e-06 -6.367453e-04
103            6.745571e-02 -2.628657e-05 2.649535e-02 1.721099e-02 -3.133728e-05 2.712843e-02 5.024473e-02 5.050710e-06 -6.330830e-04
104            6.740149e-02 -2.619423e-05 2.635830e-02 1.719226e-02 -3.124706e-05 2.698779e-02 5.020923e-02 5.052829e-06 -6.294992e-04
105            6.734862e-02 -2.615594e-05 2.622247e-02 1.717395e-02 -3.121124e-05 2.684846e-02 5.017468e-02 5.055301e-06 -6.259892e-04
106            6.729732e-02 -2.617008e-05 2.608925e-02 1.715626e-02 -3.122808e-05 2.671180e-02 5.014105e-02 5.058004e-06 -6.225514e-04
107            6.724657e-02 -2.622891e-05 2.595966e-02 1.713939e-02 -3.128982e-05 2.657883e-02 5.010719e-02 5.060903e-06 -6.191717e-04
108            6.719719e-02 -2.631220e-05 2.583281e-02 1.712293e-02 -3.137612e-05 2.644869e-02 5.007426e-02 5.063918e-06 -6.158716e-04
109            6.714900e-02 -2.640711e-05 2.570822e-02 1.710673e-02 -3.147416e-05 2.632087e-02 5.004227e-02 5.067057e-06 -6.126502e-04
110            6.710199e-02 -2.650652e-05 2.558570e-02 1.709079e-02 -3.157685e-05 2.619521e-02 5.001120e-02 5.070328e-06 -6.095070e-04
111            6.705622e-02 -2.660712e-05 2.546531e-02 1.707520e-02 -3.168103e-05 2.607176e-02 4.998102e-02 5.073914e-06 -6.064414e-04
112            6.701183e-02 -2.670779e-05 2.534731e-02 1.706011e-02 -3.178568e-05 2.595076e-02 4.995172e-02 5.077887e-06 -6.034529e-04
113            6.696891e-02 -2.680844e-05 2.523200e-02 1.704565e-02 -3.189079e-05 2.583254e-02 4.992326e-02 5.082348e-06 -6.005388e-04
114            6.692754e-02 -2.690872e-05 2.511965e-02 1.703193e-02 -3.199587e-05 2.571735e-02 4.989561e-02 5.087148e-06 -5.976978e-04
115            6.688776e-02 -2.700780e-05 2.501042e-02 1.701898e-02 -3.209958e-05 2.560535e-02 4.986877e-02 5.091783e-06 -5.949296e-04
116            6.684954e-02 -2.710357e-05 2.490433e-02 1.700683e-02 -3.220032e-05 2.549656e-02 4.984271e-02 5.096758e-06 -5.922319e-04
117            6.681285e-02 -2.719453e-05 2.480124e-02 1.699544e-02 -3.229638e-05 2.539085e-02 4.981741e-02 5.101847e-06 -5.896029e-04
118            6.677763e-02 -2.727974e-05 2.470095e-02 1.698478e-02 -3.238629e-05 2.528799e-02 4.979285e-02 5.106554e-06 -5.870413e-04
119            6.674382e-02 -2.735849e-05 2.460319e-02 1.697479e-02 -3.246970e-05 2.518773e-02 4.976902e-02 5.111214e-06 -5.845460e-04
120            6.671134e-02 -2.743135e-05 2.450770e-02 1.696543e-02 -3.254745e-05 2.508981e-02 4.974591e-02 5.116102e-06 -5.821163e-04
121            6.668012e-02 -2.749982e-05 2.441427e-02 1.695665e-02 -3.262128e-05 2.499402e-02 4.972347e-02 5.121455e-06 -5.797512e-04
122            6.665012e-02 -2.756709e-05 2.432275e-02 1.694842e-02 -3.269409e-05 2.490020e-02 4.970170e-02 5.127000e-06 -5.774501e-04
123            6.662129e-02 -2.763663e-05 2.423305e-02 1.694070e-02 -3.276927e-05 2.480826e-02 4.968059e-02 5.132635e-06 -5.752134e-04
124            6.659361e-02 -2.771153e-05 2.414511e-02 1.693348e-02 -3.284995e-05 2.471815e-02 4.966013e-02 5.138421e-06 -5.730406e-04
125            6.656704e-02 -2.779353e-05 2.405895e-02 1.692672e-02 -3.293780e-05 2.462988e-02 4.964032e-02 5.144269e-06 -5.709323e-04
126            6.654154e-02 -2.788349e-05 2.397457e-02 1.692043e-02 -3.303355e-05 2.454345e-02 4.962111e-02 5.150060e-06 -5.688862e-04
127            6.651707e-02 -2.798133e-05 2.389201e-02 1.691457e-02 -3.313705e-05 2.445891e-02 4.960250e-02 5.155721e-06 -5.669019e-04
128            6.649359e-02 -2.808578e-05 2.381129e-02 1.690912e-02 -3.324719e-05 2.437627e-02 4.958447e-02 5.161416e-06 -5.649788e-04
129            6.647109e-02 -2.819555e-05 2.373242e-02 1.690408e-02 -3.336250e-05 2.429554e-02 4.956701e-02 5.166951e-06 -5.631177e-04
130            6.644953e-02 -2.830872e-05 2.365540e-02 1.689942e-02 -3.348120e-05 2.421672e-02 4.955012e-02 5.172484e-06 -5.613177e-04
131            6.642888e-02 -2.842330e-05 2.358018e-02 1.689512e-02 -3.360142e-05 2.413976e-02 4.953377e-02 5.178126e-06 -5.595787e-04
132            6.640912e-02 -2.853773e-05 2.350670e-02 1.689116e-02 -3.372155e-05 2.406460e-02 4.951796e-02 5.183813e-06 -5.579003e-04
133            6.639021e-02 -2.865084e-05 2.343488e-02 1.688754e-02 -3.384064e-05 2.399116e-02 4.950267e-02 5.189797e-06 -5.562810e-04
134            6.637211e-02 -2.876229e-05 2.336466e-02 1.688423e-02 -3.395807e-05 2.391938e-02 4.948788e-02 5.195773e-06 -5.547203e-04
135            6.635482e-02 -2.887202e-05 2.329596e-02 1.688124e-02 -3.407376e-05 2.384918e-02 4.947358e-02 5.201745e-06 -5.532187e-04
136            6.633829e-02 -2.898009e-05 2.322874e-02 1.687854e-02 -3.418791e-05 2.378051e-02 4.945975e-02 5.207826e-06 -5.517744e-04
137            6.632252e-02 -2.908742e-05 2.316296e-02 1.687613e-02 -3.430137e-05 2.371334e-02 4.944639e-02 5.213946e-06 -5.503869e-04
138            6.630749e-02 -2.919501e-05 2.309859e-02 1.687402e-02 -3.441507e-05 2.364765e-02 4.943347e-02 5.220067e-06 -5.490554e-04
139            6.629317e-02 -2.930393e-05 2.303565e-02 1.687218e-02 -3.453007e-05 2.358343e-02 4.942099e-02 5.226142e-06 -5.477796e-04
140            6.627955e-02 -2.941487e-05 2.297414e-02 1.687061e-02 -3.464716e-05 2.352070e-02 4.940894e-02 5.232285e-06 -5.465587e-04
141            6.626660e-02 -2.952841e-05 2.291405e-02 1.686930e-02 -3.476683e-05 2.345944e-02 4.939730e-02 5.238425e-06 -5.453918e-04
142            6.625430e-02 -2.964427e-05 2.285540e-02 1.686824e-02 -3.488886e-05 2.339967e-02 4.938606e-02 5.244586e-06 -5.442783e-04
143            6.624263e-02 -2.976197e-05 2.279817e-02 1.686742e-02 -3.501251e-05 2.334139e-02 4.937520e-02 5.250544e-06 -5.432173e-04
144            6.623155e-02 -2.988101e-05 2.274237e-02 1.686684e-02 -3.513739e-05 2.328458e-02 4.936472e-02 5.256376e-06 -5.422075e-04
145            6.622105e-02 -3.000084e-05 2.268799e-02 1.686646e-02 -3.526289e-05 2.322924e-02 4.935459e-02 5.262055e-06 -5.412479e-04
146            6.621110e-02 -3.012076e-05 2.263501e-02 1.686629e-02 -3.538849e-05 2.317535e-02 4.934481e-02 5.267724e-06 -5.403378e-04
147            6.620168e-02 -3.024054e-05 2.258342e-02 1.686632e-02 -3.551376e-05 2.312290e-02 4.933537e-02 5.273227e-06 -5.394762e-04
148            6.619277e-02 -3.035951e-05 2.253320e-02 1.686652e-02 -3.563811e-05 2.307186e-02 4.932625e-02 5.278602e-06 -5.386621e-04
149            6.618434e-02 -3.047740e-05 2.248432e-02 1.686690e-02 -3.576130e-05 2.302221e-02 4.931744e-02 5.283900e-06 -5.378941e-04
150            6.617638e-02 -3.059404e-05 2.243677e-02 1.686744e-02 -3.588318e-05 2.297394e-02 4.930893e-02 5.289137e-06 -5.371715e-04
151            6.616887e-02 -3.070947e-05 2.239053e-02 1.686814e-02 -3.600378e-05 2.292702e-02 4.930073e-02 5.294315e-06 -5.364932e-04
152            6.615941e-02 -3.040498e-05 2.235999e-02 1.686663e-02 -3.570470e-05 2.289584e-02 4.929278e-02 5.299725e-06 -5.358551e-04
153            6.615219e-02 -3.055404e-05 2.231068e-02 1.686708e-02 -3.585921e-05 2.284594e-02 4.928511e-02 5.305177e-06 -5.352634e-04
154            6.614547e-02 -3.073106e-05 2.226290e-02 1.686775e-02 -3.604142e-05 2.279761e-02 4.927771e-02 5.310357e-06 -5.347110e-04
155            6.613940e-02 -3.093363e-05 2.221751e-02 1.686883e-02 -3.624888e-05 2.275170e-02 4.927058e-02 5.315250e-06 -5.341976e-04
156            6.613408e-02 -3.114965e-05 2.217485e-02 1.687039e-02 -3.646962e-05 2.270857e-02 4.926368e-02 5.319965e-06 -5.337218e-04
157            6.612684e-02 -3.093290e-05 2.214721e-02 1.686982e-02 -3.625774e-05 2.268049e-02 4.925701e-02 5.324837e-06 -5.332814e-04
158            6.612244e-02 -3.117883e-05 2.210485e-02 1.687182e-02 -3.650853e-05 2.263773e-02 4.925062e-02 5.329702e-06 -5.328838e-04
159            6.611859e-02 -3.142595e-05 2.206485e-02 1.687414e-02 -3.676028e-05 2.259737e-02 4.924445e-02 5.334328e-06 -5.325182e-04
160            6.611528e-02 -3.166599e-05 2.202757e-02 1.687680e-02 -3.700475e-05 2.255975e-02 4.923848e-02 5.338765e-06 -5.321849e-04
161            6.611246e-02 -3.188722e-05 2.199296e-02 1.687975e-02 -3.723025e-05 2.252484e-02 4.923271e-02 5.343035e-06 -5.318834e-04
162            6.611335e-02 -3.209622e-05 2.197047e-02 1.688543e-02 -3.744345e-05 2.250207e-02 4.922792e-02 5.347230e-06 -5.315955e-04
163            6.611584e-02 -3.227619e-05 2.195554e-02 1.689255e-02 -3.762731e-05 2.248690e-02 4.922329e-02 5.351129e-06 -5.313595e-04
164            6.611870e-02 -3.241146e-05 2.194387e-02 1.689991e-02 -3.776627e-05 2.247504e-02 4.921878e-02 5.354808e-06 -5.311763e-04
165            6.611732e-02 -3.223329e-05 2.193488e-02 1.690293e-02 -3.759182e-05 2.246593e-02 4.921440e-02 5.358528e-06 -5.310440e-04
166            6.611876e-02 -3.229923e-05 2.191947e-02 1.690864e-02 -3.766151e-05 2.245042e-02 4.921012e-02 5.362279e-06 -5.309531e-04
167            6.611887e-02 -3.234705e-05 2.190106e-02 1.691290e-02 -3.771306e-05 2.243195e-02 4.920597e-02 5.366016e-06 -5.308900e-04
168            6.611535e-02 -3.216349e-05 2.188588e-02 1.691342e-02 -3.753337e-05 2.241673e-02 4.920192e-02 5.369879e-06 -5.308511e-04
169            6.611314e-02 -3.222363e-05 2.186012e-02 1.691515e-02 -3.759745e-05 2.239095e-02 4.919799e-02 5.373817e-06 -5.308312e-04
170            6.610863e-02 -3.206482e-05 2.184127e-02 1.691447e-02 -3.744270e-05 2.237210e-02 4.919416e-02 5.377880e-06 -5.308220e-04
171            6.610537e-02 -3.219557e-05 2.181191e-02 1.691493e-02 -3.757755e-05 2.234274e-02 4.919044e-02 5.381974e-06 -5.308248e-04
172            6.610078e-02 -3.208716e-05 2.179226e-02 1.691397e-02 -3.747329e-05 2.232309e-02 4.918682e-02 5.386123e-06 -5.308346e-04
173            6.609784e-02 -3.231509e-05 2.176393e-02 1.691455e-02 -3.770528e-05 2.229478e-02 4.918330e-02 5.390194e-06 -5.308551e-04
174            6.609390e-02 -3.226379e-05 2.174594e-02 1.691403e-02 -3.765797e-05 2.227682e-02 4.917987e-02 5.394175e-06 -5.308834e-04
175            6.609207e-02 -3.256849e-05 2.172156e-02 1.691554e-02 -3.796651e-05 2.225249e-02 4.917653e-02 5.398017e-06 -5.309233e-04
176            6.609102e-02 -3.287645e-05 2.170079e-02 1.691772e-02 -3.827790e-05 2.223176e-02 4.917330e-02 5.401454e-06 -5.309706e-04
177            6.608853e-02 -3.287235e-05 2.168790e-02 1.691839e-02 -3.827717e-05 2.221893e-02 4.917014e-02 5.404823e-06 -5.310300e-04
178            6.608854e-02 -3.316100e-05 2.167142e-02 1.692147e-02 -3.856909e-05 2.220253e-02 4.916706e-02 5.408097e-06 -5.311012e-04
179            6.608661e-02 -3.314778e-05 2.166052e-02 1.692254e-02 -3.855901e-05 2.219170e-02 4.916407e-02 5.411226e-06 -5.311816e-04
180            6.608706e-02 -3.338095e-05 2.164650e-02 1.692591e-02 -3.879528e-05 2.217777e-02 4.916115e-02 5.414325e-06 -5.312714e-04
181            6.608758e-02 -3.357324e-05 2.163392e-02 1.692926e-02 -3.899039e-05 2.216528e-02 4.915832e-02 5.417151e-06 -5.313648e-04
182            6.608589e-02 -3.352880e-05 2.162491e-02 1.693032e-02 -3.894876e-05 2.215637e-02 4.915556e-02 5.419959e-06 -5.314670e-04
183            6.608628e-02 -3.366156e-05 2.161321e-02 1.693340e-02 -3.908436e-05 2.214479e-02 4.915288e-02 5.422797e-06 -5.315749e-04
184            6.608452e-02 -3.360052e-05 2.160452e-02 1.693425e-02 -3.902609e-05 2.213620e-02 4.915026e-02 5.425570e-06 -5.316867e-04
185            6.608465e-02 -3.370232e-05 2.159321e-02 1.693693e-02 -3.913072e-05 2.212501e-02 4.914772e-02 5.428399e-06 -5.318018e-04
186            6.608472e-02 -3.379841e-05 2.158274e-02 1.693946e-02 -3.922951e-05 2.211466e-02 4.914525e-02 5.431104e-06 -5.319156e-04
187            6.608292e-02 -3.374348e-05 2.157505e-02 1.694007e-02 -3.917728e-05 2.210709e-02 4.914285e-02 5.433800e-06 -5.320337e-04
188            6.608285e-02 -3.384244e-05 2.156536e-02 1.694233e-02 -3.927897e-05 2.209751e-02 4.914051e-02 5.436531e-06 -5.321538e-04
189            6.608108e-02 -3.379686e-05 2.155820e-02 1.694284e-02 -3.923608e-05 2.209047e-02 4.913824e-02 5.439221e-06 -5.322751e-04
190            6.608094e-02 -3.390860e-05 2.154934e-02 1.694491e-02 -3.935053e-05 2.208174e-02 4.913603e-02 5.441930e-06 -5.323972e-04
191            6.607925e-02 -3.387591e-05 2.154280e-02 1.694536e-02 -3.932048e-05 2.207531e-02 4.913388e-02 5.444571e-06 -5.325196e-04
192            6.607913e-02 -3.400422e-05 2.153496e-02 1.694733e-02 -3.945143e-05 2.206760e-02 4.913180e-02 5.447207e-06 -5.326419e-04
193            6.607757e-02 -3.398465e-05 2.152912e-02 1.694780e-02 -3.943440e-05 2.206188e-02 4.912977e-02 5.449748e-06 -5.327639e-04
194            6.607757e-02 -3.412528e-05 2.152240e-02 1.694977e-02 -3.957754e-05 2.205529e-02 4.912780e-02 5.452261e-06 -5.328850e-04
195            6.607618e-02 -3.411537e-05 2.151731e-02 1.695029e-02 -3.957004e-05 2.205032e-02 4.912589e-02 5.454667e-06 -5.330051e-04
196            6.607636e-02 -3.425951e-05 2.151170e-02 1.695232e-02 -3.971655e-05 2.204483e-02 4.912404e-02 5.457037e-06 -5.331237e-04
197            6.607666e-02 -3.439602e-05 2.150688e-02 1.695441e-02 -3.985526e-05 2.204012e-02 4.912224e-02 5.459241e-06 -5.332376e-04
198            6.607705e-02 -3.451913e-05 2.150278e-02 1.695654e-02 -3.998046e-05 2.203613e-02 4.912051e-02 5.461324e-06 -5.333492e-04
199            6.607749e-02 -3.462380e-05 2.149928e-02 1.695867e-02 -4.008711e-05 2.203274e-02 4.911882e-02 5.463307e-06 -5.334589e-04
200            6.607648e-02 -3.460668e-05 2.149622e-02 1.695930e-02 -4.007193e-05 2.202979e-02 4.911718e-02 5.465246e-06 -5.335701e-04
201            6.607682e-02 -3.467860e-05 2.149319e-02 1.696123e-02 -4.014579e-05 2.202687e-02 4.911559e-02 5.467192e-06 -5.336794e-04
202            6.607706e-02 -3.473639e-05 2.149041e-02 1.696300e-02 -4.020550e-05 2.202419e-02 4.911405e-02 5.469112e-06 -5.337839e-04
203            6.607716e-02 -3.478330e-05 2.148784e-02 1.696459e-02 -4.025428e-05 2.202173e-02 4.911257e-02 5.470983e-06 -5.338853e-04
204            6.607714e-02 -3.482181e-05 2.148547e-02 1.696601e-02 -4.029461e-05 2.201946e-02 4.911112e-02 5.472798e-06 -5.339837e-04
205            6.607701e-02 -3.485383e-05 2.148329e-02 1.696728e-02 -4.032839e-05 2.201737e-02 4.910973e-02 5.474563e-06 -5.340791e-04
206            6.607679e-02 -3.488107e-05 2.148127e-02 1.696842e-02 -4.035736e-05 2.201544e-02 4.910838e-02 5.476287e-06 -5.341717e-04
207            6.607650e-02 -3.490519e-05 2.147940e-02 1.696943e-02 -4.038316e-05 2.201366e-02 4.910707e-02 5.477970e-06 -5.342612e-04
208            6.607614e-02 -3.492760e-05 2.147768e-02 1.697033e-02 -4.040721e-05 2.201203e-02 4.910580e-02 5.479612e-06 -5.343477e-04
209            6.607488e-02 -3.489235e-05 2.147581e-02 1.697031e-02 -4.037357e-05 2.201024e-02 4.910458e-02 5.481212e-06 -5.344337e-04
210            6.607438e-02 -3.491641e-05 2.147421e-02 1.697099e-02 -4.039922e-05 2.200872e-02 4.910339e-02 5.482806e-06 -5.345165e-04
211            6.607388e-02 -3.494642e-05 2.147276e-02 1.697163e-02 -4.043079e-05 2.200735e-02 4.910224e-02 5.484368e-06 -5.345940e-04
212            6.607386e-02 -3.498201e-05 2.147271e-02 1.697272e-02 -4.046807e-05 2.200737e-02 4.910114e-02 5.486059e-06 -5.346652e-04
213            6.607412e-02 -3.502273e-05 2.147341e-02 1.697405e-02 -4.051032e-05 2.200814e-02 4.910007e-02 5.487588e-06 -5.347375e-04
214            6.607447e-02 -3.506611e-05 2.147429e-02 1.697544e-02 -4.055507e-05 2.200910e-02 4.909904e-02 5.488961e-06 -5.348107e-04
215            6.607476e-02 -3.510936e-05 2.147495e-02 1.697672e-02 -4.059957e-05 2.200984e-02 4.909804e-02 5.490208e-06 -5.348836e-04
216            6.607508e-02 -3.515235e-05 2.147553e-02 1.697800e-02 -4.064371e-05 2.201050e-02 4.909708e-02 5.491359e-06 -5.349747e-04
217            6.607512e-02 -3.518882e-05 2.147554e-02 1.697897e-02 -4.068124e-05 2.201058e-02 4.909615e-02 5.492427e-06 -5.350429e-04
218            6.607508e-02 -3.522058e-05 2.147535e-02 1.697983e-02 -4.071402e-05 2.201047e-02 4.909525e-02 5.493439e-06 -5.351245e-04
219            6.607494e-02 -3.524654e-05 2.147504e-02 1.698055e-02 -4.074095e-05 2.201024e-02 4.909439e-02 5.494402e-06 -5.351999e-04
220            6.607470e-02 -3.526699e-05 2.147468e-02 1.698114e-02 -4.076232e-05 2.200995e-02 4.909355e-02 5.495325e-06 -5.352687e-04
221            6.607439e-02 -3.528329e-05 2.147436e-02 1.698163e-02 -4.077950e-05 2.200969e-02 4.909275e-02 5.496216e-06 -5.353310e-04