# Force       
# CofR        : (0.000000e+00 0.000000e+00 0.000000e+00)
#
# Time        	total_x total_y total_z	pressure_x pressure_y pressure_z	viscous_x viscous_y viscous_z
1              7.753556e-01 -4.178309e-04 2.074930e+00 6.952952e-01 -4.163948e-04 2.073876e+00 8.006038e-02 -1.436105e-06 1.053699e-03
2              9.197386e-01 -4.948587e-04 2.601133e+00 8.433736e-01 -4.975459e-04 2.602420e+00 7.636505e-02 2.687166e-06 -1.287231e-03
3              8.260768e-01 -7.070441e-04 2.342762e+00 7.519753e-01 -7.126999e-04 2.346324e+00 7.410141e-02 5.655748e-06 -3.562026e-03
4              5.942990e-01 -6.698531e-04 1.611217e+00 5.217390e-01 -6.767389e-04 1.616447e+00 7.256000e-02 6.885782e-06 -5.230545e-03
5              3.284865e-01 -5.075015e-04 7.485046e-01 2.569819e-01 -5.140928e-04 7.545705e-01 7.150457e-02 6.591321e-06 -6.065863e-03
6              9.676336e-02 -2.364440e-04 -1.401755e-02 2.594750e-02 -2.420197e-04 -7.932319e-03 7.081586e-02 5.575778e-06 -6.085234e-03
7              -6.098503e-02 9.087378e-05 -5.315486e-01 -1.313622e-01 8.646927e-05 -5.260543e-01 7.037713e-02 4.404514e-06 -5.494262e-03
8              -1.327403e-01 3.972333e-04 -7.529564e-01 -2.028125e-01 3.938598e-04 -7.483700e-01 7.007222e-02 3.373544e-06 -4.586328e-03
9              -1.292289e-01 6.495114e-04 -7.135902e-01 -1.990294e-01 6.468890e-04 -7.099403e-01 6.980052e-02 2.622385e-06 -3.649932e-03
10             -7.497880e-02 7.070590e-04 -4.889388e-01 -1.444660e-01 7.048786e-04 -4.860396e-01 6.948722e-02 2.180405e-06 -2.899187e-03
11             1.933707e-03 5.847331e-04 -1.891998e-01 -6.716503e-02 5.827818e-04 -1.867500e-01 6.909874e-02 1.951258e-06 -2.449850e-03
12             7.641665e-02 3.411576e-04 8.957791e-02 7.784385e-03 3.393730e-04 9.190129e-02 6.863227e-02 1.784557e-06 -2.323383e-03
13             1.323028e-01 5.440765e-05 2.864972e-01 6.419714e-02 5.279389e-05 2.889606e-01 6.810567e-02 1.613764e-06 -2.463393e-03
14             1.604082e-01 -1.453235e-04 3.700357e-01 9.285935e-02 -1.467890e-04 3.728090e-01 6.754888e-02 1.465512e-06 -2.773212e-03
15             1.676429e-01 -3.078430e-04 3.727971e-01 1.006485e-01 -3.091488e-04 3.759304e-01 6.699436e-02 1.305757e-06 -3.133300e-03
16             1.601730e-01 -4.174130e-04 3.202229e-01 9.369579e-02 -4.185435e-04 3.236668e-01 6.647725e-02 1.130464e-06 -3.443824e-03
17             1.435453e-01 -4.442252e-04 2.363170e-01 7.753137e-02 -4.451544e-04 2.399635e-01 6.601388e-02 9.291660e-07 -3.646430e-03
18             1.219330e-01 -3.106820e-04 1.376245e-01 5.632644e-02 -3.114796e-04 1.413521e-01 6.560657e-02 7.976542e-07 -3.727517e-03
19             1.032742e-01 -1.295237e-04 6.101012e-02 3.802696e-02 -1.303151e-04 6.470769e-02 6.524728e-02 7.914344e-07 -3.697566e-03
20             9.178324e-02 -5.903552e-06 2.230251e-02 2.685502e-02 -6.762538e-06 2.588646e-02 6.492822e-02 8.589858e-07 -3.583956e-03
21             8.597836e-02 1.111980e-04 1.120370e-02 2.133965e-02 1.102135e-04 1.463406e-02 6.463872e-02 9.844174e-07 -3.430358e-03
22             8.480905e-02 2.081989e-04 2.078626e-02 2.044416e-02 2.070303e-04 2.406381e-02 6.436488e-02 1.168590e-06 -3.277558e-03
23             8.689474e-02 2.755773e-04 4.345145e-02 2.279744e-02 2.741891e-04 4.660453e-02 6.409730e-02 1.388194e-06 -3.153084e-03
24             9.067014e-02 3.024775e-04 7.080750e-02 2.683910e-02 3.008652e-04 7.387735e-02 6.383104e-02 1.612275e-06 -3.069850e-03
25             9.465258e-02 2.871671e-04 9.550182e-02 3.108773e-02 2.853629e-04 9.852981e-02 6.356485e-02 1.804222e-06 -3.027995e-03
26             9.777763e-02 2.368043e-04 1.127765e-01 3.447726e-02 2.348451e-04 1.157950e-01 6.330038e-02 1.959156e-06 -3.018527e-03
27             9.952108e-02 1.657313e-04 1.209106e-01 3.648091e-02 1.636784e-04 1.239385e-01 6.304017e-02 2.052928e-06 -3.027910e-03
28             9.990588e-02 8.894387e-05 1.210721e-01 3.711872e-02 8.686083e-05 1.241144e-01 6.278716e-02 2.083047e-06 -3.042239e-03
29             9.923960e-02 1.249252e-05 1.155861e-01 3.669606e-02 1.044698e-05 1.186366e-01 6.254354e-02 2.045541e-06 -3.050418e-03
30             9.787422e-02 -5.362878e-05 1.067637e-01 3.556325e-02 -5.557964e-05 1.098099e-01 6.231097e-02 1.950856e-06 -3.046239e-03
31             9.622014e-02 -9.729976e-05 9.709822e-02 3.412992e-02 -9.913773e-05 1.001265e-01 6.209022e-02 1.837975e-06 -3.028237e-03
32             9.464841e-02 -1.132828e-04 8.871321e-02 3.276758e-02 -1.150266e-04 9.171161e-02 6.188083e-02 1.743831e-06 -2.998404e-03
33             9.338296e-02 -1.017739e-04 8.275395e-02 3.170089e-02 -1.034430e-04 8.571495e-02 6.168207e-02 1.669119e-06 -2.960991e-03
34             9.251113e-02 -6.890398e-05 7.951805e-02 3.101847e-02 -7.054517e-05 8.243854e-02 6.149266e-02 1.641186e-06 -2.920487e-03
35             9.199402e-02 -2.341999e-05 7.855526e-02 3.068260e-02 -2.505140e-05 8.143624e-02 6.131142e-02 1.631407e-06 -2.880980e-03
36             9.173180e-02 2.718345e-05 7.910962e-02 3.059458e-02 2.554078e-05 8.195493e-02 6.113723e-02 1.642666e-06 -2.845307e-03
37             9.161864e-02 7.500043e-05 8.044991e-02 3.064953e-02 7.333166e-05 8.326471e-02 6.096911e-02 1.668771e-06 -2.814800e-03
38             9.155532e-02 1.121577e-04 8.192182e-02 3.074867e-02 1.104597e-04 8.471121e-02 6.080665e-02 1.697990e-06 -2.789393e-03
39             9.146360e-02 1.333707e-04 8.302880e-02 3.081409e-02 1.316456e-04 8.579689e-02 6.064952e-02 1.725160e-06 -2.768093e-03
40             9.129809e-02 1.372795e-04 8.349572e-02 3.080026e-02 1.355278e-04 8.624515e-02 6.049783e-02 1.751703e-06 -2.749433e-03
41             9.104576e-02 1.261865e-04 8.326948e-02 3.069433e-02 1.244173e-04 8.600140e-02 6.035143e-02 1.769231e-06 -2.731917e-03
42             9.071347e-02 1.039684e-04 8.243429e-02 3.050304e-02 1.021997e-04 8.514866e-02 6.021044e-02 1.768746e-06 -2.714369e-03
43             9.032168e-02 7.551841e-05 8.114689e-02 3.024690e-02 7.376071e-05 8.384297e-02 6.007478e-02 1.757702e-06 -2.696075e-03
44             8.990275e-02 4.712514e-05 7.962572e-02 2.995861e-02 4.538491e-05 8.230255e-02 5.994414e-02 1.740231e-06 -2.676825e-03
45             8.948785e-02 2.428457e-05 7.808141e-02 2.966949e-02 2.256675e-05 8.073817e-02 5.981836e-02 1.717823e-06 -2.656766e-03
46             8.909958e-02 1.030196e-05 7.666922e-02 2.940217e-02 8.609521e-06 7.930551e-02 5.969741e-02 1.692440e-06 -2.636294e-03
47             8.874911e-02 5.932542e-06 7.547018e-02 2.916803e-02 4.267262e-06 7.808604e-02 5.958108e-02 1.665280e-06 -2.615865e-03
48             8.843719e-02 9.879383e-06 7.449582e-02 2.896819e-02 8.239670e-06 7.709174e-02 5.946900e-02 1.639713e-06 -2.595915e-03
49             8.815767e-02 1.971119e-05 7.370876e-02 2.879674e-02 1.808461e-05 7.628553e-02 5.936093e-02 1.626583e-06 -2.576770e-03
50             8.790125e-02 3.266589e-05 7.304829e-02 2.864460e-02 3.104346e-05 7.560688e-02 5.925665e-02 1.622434e-06 -2.558593e-03
51             8.765856e-02 4.621780e-05 7.245076e-02 2.850247e-02 4.459392e-05 7.499219e-02 5.915609e-02 1.623886e-06 -2.541432e-03
52             8.742174e-02 5.830817e-05 7.186193e-02 2.836257e-02 5.667691e-05 7.438715e-02 5.905917e-02 1.631264e-06 -2.525215e-03
53             8.718760e-02 6.710137e-05 7.125629e-02 2.822195e-02 6.545901e-05 7.376607e-02 5.896566e-02 1.642357e-06 -2.509778e-03
54             8.696083e-02 7.074197e-05 7.063828e-02 2.808538e-02 6.908769e-05 7.313323e-02 5.887545e-02 1.654273e-06 -2.494945e-03
55             8.674363e-02 6.939626e-05 7.002820e-02 2.795522e-02 6.773276e-05 7.250880e-02 5.878841e-02 1.663501e-06 -2.480600e-03
56             8.653433e-02 6.469932e-05 6.942729e-02 2.782985e-02 6.303085e-05 7.189388e-02 5.870448e-02 1.668472e-06 -2.466600e-03
57             8.632959e-02 5.882164e-05 6.883991e-02 2.770595e-02 5.715161e-05 7.129275e-02 5.862364e-02 1.670028e-06 -2.452848e-03
58             8.612850e-02 5.275382e-05 6.824836e-02 2.758290e-02 5.108261e-05 7.068762e-02 5.854561e-02 1.671205e-06 -2.439257e-03
59             8.593089e-02 4.785770e-05 6.766801e-02 2.746055e-02 4.618958e-05 7.009391e-02 5.847034e-02 1.668116e-06 -2.425901e-03
60             8.573782e-02 4.451450e-05 6.708875e-02 2.733996e-02 4.284904e-05 6.950155e-02 5.839785e-02 1.665454e-06 -2.412806e-03
61             8.554970e-02 4.301862e-05 6.651663e-02 2.722176e-02 4.135435e-05 6.891670e-02 5.832794e-02 1.664278e-06 -2.400071e-03
62             8.536711e-02 4.341077e-05 6.596843e-02 2.710658e-02 4.174709e-05 6.835614e-02 5.826053e-02 1.663682e-06 -2.387716e-03
63             8.519077e-02 4.514310e-05 6.544479e-02 2.699539e-02 4.347747e-05 6.782049e-02 5.819538e-02 1.665630e-06 -2.375709e-03
64             8.502104e-02 4.757690e-05 6.494348e-02 2.688863e-02 4.590868e-05 6.730754e-02 5.813241e-02 1.668219e-06 -2.364059e-03
65             8.485813e-02 5.010278e-05 6.446246e-02 2.678655e-02 4.843029e-05 6.681523e-02 5.807158e-02 1.672489e-06 -2.352768e-03
66             8.470240e-02 5.223170e-05 6.400195e-02 2.668955e-02 5.055396e-05 6.634378e-02 5.801286e-02 1.677738e-06 -2.341823e-03
67             8.455415e-02 5.365978e-05 6.356317e-02 2.659793e-02 5.197519e-05 6.589438e-02 5.795621e-02 1.684590e-06 -2.331210e-03
68             8.441312e-02 5.432056e-05 6.314507e-02 2.651145e-02 5.262988e-05 6.546598e-02 5.790167e-02 1.690674e-06 -2.320911e-03
69             8.427835e-02 5.434472e-05 6.274387e-02 2.642927e-02 5.264754e-05 6.505476e-02 5.784908e-02 1.697186e-06 -2.310894e-03
70             8.414877e-02 5.395030e-05 6.235525e-02 2.635044e-02 5.224671e-05 6.465639e-02 5.779833e-02 1.703592e-06 -2.301132e-03
71             8.402362e-02 5.335640e-05 6.197644e-02 2.627428e-02 5.164719e-05 6.426805e-02 5.774933e-02 1.709205e-06 -2.291602e-03
72             8.390260e-02 5.273868e-05 6.160648e-02 2.620053e-02 5.102428e-05 6.388877e-02 5.770207e-02 1.714408e-06 -2.282296e-03
73             8.378566e-02 5.221651e-05 6.124565e-02 2.612917e-02 5.049749e-05 6.351887e-02 5.765649e-02 1.719016e-06 -2.273214e-03
74             8.365980e-02 5.162500e-05 6.083780e-02 2.604726e-02 4.990198e-05 6.310364e-02 5.761253e-02 1.723015e-06 -2.265842e-03
75             8.353174e-02 5.120167e-05 6.041549e-02 2.596161e-02 4.947516e-05 6.267398e-02 5.757013e-02 1.726510e-06 -2.258489e-03
76             8.340756e-02 5.109466e-05 6.000643e-02 2.587839e-02 4.936490e-05 6.225755e-02 5.752917e-02 1.729766e-06 -2.251122e-03
77             8.329179e-02 5.133091e-05 5.963033e-02 2.580212e-02 4.959797e-05 6.187409e-02 5.748967e-02 1.732937e-06 -2.243759e-03
78             8.318694e-02 5.182307e-05 5.929789e-02 2.573534e-02 5.008667e-05 6.153432e-02 5.745160e-02 1.736394e-06 -2.236433e-03
79             8.309377e-02 5.240700e-05 5.901228e-02 2.567889e-02 5.066699e-05 6.124147e-02 5.741488e-02 1.740008e-06 -2.229190e-03
80             8.301146e-02 5.291255e-05 5.877013e-02 2.563199e-02 5.116879e-05 6.099220e-02 5.737947e-02 1.743753e-06 -2.222072e-03
81             8.293786e-02 5.324004e-05 5.856162e-02 2.559254e-02 5.149263e-05 6.077673e-02 5.734532e-02 1.747411e-06 -2.215112e-03
82             8.287014e-02 5.336997e-05 5.837335e-02 2.555778e-02 5.161952e-05 6.058168e-02 5.731237e-02 1.750460e-06 -2.208334e-03
83             8.280571e-02 5.333042e-05 5.819272e-02 2.552515e-02 5.157683e-05 6.039446e-02 5.728056e-02 1.753595e-06 -2.201745e-03
84             8.274265e-02 5.317101e-05 5.801063e-02 2.549279e-02 5.141409e-05 6.020596e-02 5.724986e-02 1.756918e-06 -2.195338e-03
85             8.267984e-02 5.294545e-05 5.782215e-02 2.545961e-02 5.118575e-05 6.001126e-02 5.722023e-02 1.759705e-06 -2.189108e-03
86             8.261691e-02 5.270633e-05 5.762614e-02 2.542527e-02 5.094388e-05 5.980917e-02 5.719165e-02 1.762452e-06 -2.183038e-03
87             8.255404e-02 5.249541e-05 5.742423e-02 2.538997e-02 5.073087e-05 5.960134e-02 5.716407e-02 1.764543e-06 -2.177115e-03
88             8.249182e-02 5.233808e-05 5.721979e-02 2.535431e-02 5.057158e-05 5.939112e-02 5.713751e-02 1.766498e-06 -2.171328e-03
89             8.243094e-02 5.224162e-05 5.701680e-02 2.531902e-02 5.047363e-05 5.918247e-02 5.711192e-02 1.767998e-06 -2.165666e-03
90             8.237212e-02 5.219922e-05 5.681897e-02 2.528484e-02 5.043012e-05 5.897910e-02 5.708728e-02 1.769092e-06 -2.160126e-03
91             8.231593e-02 5.219374e-05 5.662918e-02 2.525236e-02 5.042385e-05 5.878388e-02 5.706356e-02 1.769897e-06 -2.154702e-03
92             8.226270e-02 5.220296e-05 5.644923e-02 2.522198e-02 5.043258e-05 5.859863e-02 5.704072e-02 1.770381e-06 -2.149396e-03
93             8.221259e-02 5.220459e-05 5.627985e-02 2.519387e-02 5.043424e-05 5.842406e-02 5.701872e-02 1.770352e-06 -2.144209e-03
94             8.216560e-02 5.218480e-05 5.612101e-02 2.516806e-02 5.041493e-05 5.826016e-02 5.699755e-02 1.769869e-06 -2.139145e-03
95             8.212154e-02 5.213409e-05 5.597171e-02 2.514435e-02 5.036502e-05 5.810591e-02 5.697718e-02 1.769077e-06 -2.134202e-03
96             8.207999e-02 5.205242e-05 5.583021e-02 2.512243e-02 5.028433e-05 5.795959e-02 5.695757e-02 1.768097e-06 -2.129383e-03
97             8.204056e-02 5.194627e-05 5.569453e-02 2.510187e-02 5.017888e-05 5.781921e-02 5.693869e-02 1.767394e-06 -2.124689e-03
98             8.200286e-02 5.182589e-05 5.556284e-02 2.508234e-02 5.005879e-05 5.768295e-02 5.692053e-02 1.767101e-06 -2.120117e-03
99             8.196658e-02 5.170196e-05 5.543380e-02 2.506353e-02 4.993494e-05 5.754947e-02 5.690305e-02 1.767022e-06 -2.115668e-03
100            8.193152e-02 5.158370e-05 5.530664e-02 2.504528e-02 4.981656e-05 5.741798e-02 5.688625e-02 1.767144e-06 -2.111340e-03
101            8.189760e-02 5.147696e-05 5.518114e-02 2.502750e-02 4.970958e-05 5.728827e-02 5.687010e-02 1.767381e-06 -2.107134e-03
102            8.186482e-02 5.138466e-05 5.505745e-02 2.501020e-02 4.961690e-05 5.716050e-02 5.685462e-02 1.767755e-06 -2.103049e-03
103            8.183319e-02 5.130629e-05 5.493598e-02 2.499343e-02 4.953819e-05 5.703507e-02 5.683976e-02 1.768104e-06 -2.099085e-03
104            8.180277e-02 5.123953e-05 5.481718e-02 2.497727e-02 4.947109e-05 5.691242e-02 5.682550e-02 1.768434e-06 -2.095240e-03
105            8.177361e-02 5.118035e-05 5.470146e-02 2.496179e-02 4.941149e-05 5.679297e-02 5.681182e-02 1.768865e-06 -2.091512e-03
106            8.174574e-02 5.112443e-05 5.458913e-02 2.494706e-02 4.935495e-05 5.667702e-02 5.679868e-02 1.769483e-06 -2.087897e-03
107            8.171919e-02 5.106663e-05 5.448041e-02 2.493311e-02 4.929648e-05 5.656481e-02 5.678608e-02 1.770148e-06 -2.084396e-03
108            8.169396e-02 5.100231e-05 5.437551e-02 2.491996e-02 4.923151e-05 5.645652e-02 5.677400e-02 1.770797e-06 -2.081009e-03
109            8.167004e-02 5.092929e-05 5.427452e-02 2.490762e-02 4.915773e-05 5.635226e-02 5.676242e-02 1.771557e-06 -2.077733e-03
110            8.164736e-02 5.084711e-05 5.417742e-02 2.489605e-02 4.907472e-05 5.625199e-02 5.675131e-02 1.772392e-06 -2.074569e-03
111            8.162584e-02 5.075797e-05 5.408395e-02 2.488516e-02 4.898472e-05 5.615546e-02 5.674068e-02 1.773244e-06 -2.071513e-03
112            8.160536e-02 5.066566e-05 5.399366e-02 2.487488e-02 4.889150e-05 5.606222e-02 5.673048e-02 1.774157e-06 -2.068564e-03
113            8.159404e-02 5.061795e-05 5.393185e-02 2.487214e-02 4.884260e-05 5.599753e-02 5.672190e-02 1.775347e-06 -2.065680e-03
114            8.158738e-02 5.057343e-05 5.388646e-02 2.487371e-02 4.879662e-05 5.594942e-02 5.671367e-02 1.776810e-06 -2.062968e-03
115            8.158202e-02 5.051529e-05 5.384666e-02 2.487661e-02 4.873704e-05 5.590707e-02 5.670541e-02 1.778253e-06 -2.060411e-03
116            8.157585e-02 5.043744e-05 5.380385e-02 2.487836e-02 4.865781e-05 5.586186e-02 5.669748e-02 1.779624e-06 -2.058011e-03
117            8.156739e-02 5.034236e-05 5.375294e-02 2.487751e-02 4.856145e-05 5.580868e-02 5.668988e-02 1.780905e-06 -2.055748e-03
118            8.155612e-02 5.023816e-05 5.369208e-02 2.487352e-02 4.845606e-05 5.574568e-02 5.668259e-02 1.782096e-06 -2.053597e-03
119            8.154223e-02 5.013526e-05 5.362206e-02 2.486661e-02 4.835198e-05 5.567360e-02 5.667562e-02 1.783278e-06 -2.051539e-03
120            8.152640e-02 5.004302e-05 5.354541e-02 2.485747e-02 4.825856e-05 5.559497e-02 5.666893e-02 1.784458e-06 -2.049556e-03
121            8.150958e-02 4.996757e-05 5.346551e-02 2.484707e-02 4.818181e-05 5.551315e-02 5.666251e-02 1.785756e-06 -2.047641e-03
122            8.149272e-02 4.991047e-05 5.338577e-02 2.483636e-02 4.812340e-05 5.543156e-02 5.665636e-02 1.787075e-06 -2.045789e-03
123            8.147660e-02 4.986890e-05 5.330900e-02 2.482615e-02 4.808045e-05 5.535300e-02 5.665045e-02 1.788456e-06 -2.043999e-03
124            8.146178e-02 4.983669e-05 5.323711e-02 2.481700e-02 4.804678e-05 5.527938e-02 5.664478e-02 1.789905e-06 -2.042274e-03
125            8.144851e-02 4.980637e-05 5.317094e-02 2.480917e-02 4.801497e-05 5.521156e-02 5.663934e-02 1.791406e-06 -2.040616e-03
126            8.143682e-02 4.977161e-05 5.311044e-02 2.480270e-02 4.797866e-05 5.514947e-02 5.663412e-02 1.792950e-06 -2.039027e-03
127            8.142070e-02 4.968144e-05 5.303672e-02 2.479239e-02 4.788711e-05 5.507426e-02 5.662831e-02 1.794331e-06 -2.037537e-03
128            8.140866e-02 4.962352e-05 5.297457e-02 2.478517e-02 4.782758e-05 5.501061e-02 5.662349e-02 1.795938e-06 -2.036041e-03
129            8.139963e-02 4.957908e-05 5.292228e-02 2.478067e-02 4.778148e-05 5.495690e-02 5.661896e-02 1.797594e-06 -2.034622e-03
130            8.139284e-02 4.953891e-05 5.287743e-02 2.477826e-02 4.773964e-05 5.491071e-02 5.661459e-02 1.799271e-06 -2.033275e-03
131            8.138242e-02 4.945140e-05 5.282147e-02 2.477273e-02 4.765069e-05 5.485350e-02 5.660968e-02 1.800718e-06 -2.032028e-03
132            8.137531e-02 4.939880e-05 5.277453e-02 2.476970e-02 4.759642e-05 5.480531e-02 5.660561e-02 1.802374e-06 -2.030786e-03
133            8.137021e-02 4.936151e-05 5.273430e-02 2.476853e-02 4.755747e-05 5.476391e-02 5.660168e-02 1.804042e-06 -2.029613e-03
134            8.136635e-02 4.932886e-05 5.269832e-02 2.476846e-02 4.752317e-05 5.472683e-02 5.659789e-02 1.805691e-06 -2.028510e-03
135            8.136304e-02 4.929437e-05 5.266437e-02 2.476883e-02 4.748706e-05 5.469185e-02 5.659422e-02 1.807305e-06 -2.027476e-03
136            8.135976e-02 4.925467e-05 5.263078e-02 2.476909e-02 4.744580e-05 5.465729e-02 5.659067e-02 1.808869e-06 -2.026506e-03
137            8.135616e-02 4.920923e-05 5.259655e-02 2.476893e-02 4.739885e-05 5.462214e-02 5.658723e-02 1.810377e-06 -2.025595e-03
138            8.135210e-02 4.915961e-05 5.256130e-02 2.476819e-02 4.734780e-05 5.458604e-02 5.658390e-02 1.811813e-06 -2.024736e-03
139            8.134759e-02 4.910855e-05 5.252519e-02 2.476691e-02 4.729534e-05 5.454911e-02 5.658068e-02 1.813215e-06 -2.023926e-03
140            8.134276e-02 4.905891e-05 5.248869e-02 2.476519e-02 4.724431e-05 5.451185e-02 5.657756e-02 1.814600e-06 -2.023158e-03
141            8.133776e-02 4.901289e-05 5.245240e-02 2.476322e-02 4.719691e-05 5.447483e-02 5.657454e-02 1.815981e-06 -2.022430e-03
142            8.133278e-02 4.897161e-05 5.241690e-02 2.476117e-02 4.715425e-05 5.443864e-02 5.657162e-02 1.817364e-06 -2.021740e-03
143            8.132797e-02 4.893503e-05 5.238262e-02 2.475919e-02 4.711627e-05 5.440371e-02 5.656878e-02 1.818758e-06 -2.021088e-03
144            8.132342e-02 4.890213e-05 5.234984e-02 2.475739e-02 4.708197e-05 5.437031e-02 5.656603e-02 1.820164e-06 -2.020471e-03
145            8.131920e-02 4.887143e-05 5.231868e-02 2.475584e-02 4.704985e-05 5.433857e-02 5.656336e-02 1.821578e-06 -2.019889e-03
146            8.131532e-02 4.884133e-05 5.228913e-02 2.475455e-02 4.701833e-05 5.430847e-02 5.656078e-02 1.822995e-06 -2.019343e-03
147            8.131178e-02 4.881053e-05 5.226108e-02 2.475351e-02 4.698613e-05 5.427991e-02 5.655827e-02 1.824408e-06 -2.018831e-03
148            8.130853e-02 4.877814e-05 5.223440e-02 2.475271e-02 4.695234e-05 5.425275e-02 5.655583e-02 1.825808e-06 -2.018351e-03
149            8.130555e-02 4.874372e-05 5.220894e-02 2.475209e-02 4.691653e-05 5.422684e-02 5.655346e-02 1.827186e-06 -2.017904e-03
150            8.130279e-02 4.870730e-05 5.218455e-02 2.475162e-02 4.687876e-05 5.420204e-02 5.655117e-02 1.828538e-06 -2.017487e-03
151            8.130022e-02 4.866937e-05 5.216113e-02 2.475128e-02 4.683950e-05 5.417823e-02 5.654894e-02 1.829873e-06 -2.017099e-03
152            8.129780e-02 4.863065e-05 5.213858e-02 2.475103e-02 4.679948e-05 5.415532e-02 5.654677e-02 1.831169e-06 -2.016738e-03
153            8.129553e-02 4.859192e-05 5.211688e-02 2.475087e-02 4.675950e-05 5.413328e-02 5.654466e-02 1.832416e-06 -2.016403e-03
154            8.129339e-02 4.855363e-05 5.209599e-02 2.475077e-02 4.671999e-05 5.411208e-02 5.654262e-02 1.833638e-06 -2.016092e-03
155            8.129136e-02 4.851619e-05 5.207591e-02 2.475073e-02 4.668135e-05 5.409172e-02 5.654063e-02 1.834835e-06 -2.015805e-03
156            8.128944e-02 4.847984e-05 5.205666e-02 2.475075e-02 4.664384e-05 5.407220e-02 5.653869e-02 1.836007e-06 -2.015539e-03
157            8.128763e-02 4.844467e-05 5.203822e-02 2.475082e-02 4.660752e-05 5.405352e-02 5.653682e-02 1.837153e-06 -2.015294e-03
158            8.128592e-02 4.841054e-05 5.202059e-02 2.475094e-02 4.657225e-05 5.403566e-02 5.653499e-02 1.838293e-06 -2.015069e-03
159            8.128431e-02 4.837726e-05 5.200374e-02 2.475110e-02 4.653785e-05 5.401861e-02 5.653321e-02 1.839406e-06 -2.014862e-03
160            8.128278e-02 4.834471e-05 5.198765e-02 2.475129e-02 4.650422e-05 5.400232e-02 5.653148e-02 1.840487e-06 -2.014674e-03
161            8.128061e-02 4.833924e-05 5.197786e-02 2.475081e-02 4.649773e-05 5.399236e-02 5.652980e-02 1.841515e-06 -2.014502e-03
162            8.127900e-02 4.829721e-05 5.196101e-02 2.475084e-02 4.645494e-05 5.397536e-02 5.652815e-02 1.842267e-06 -2.014347e-03
163            8.127748e-02 4.825535e-05 5.194489e-02 2.475092e-02 4.641199e-05 5.395909e-02 5.652656e-02 1.843361e-06 -2.014207e-03
164            8.127542e-02 4.824199e-05 5.193510e-02 2.475041e-02 4.639761e-05 5.394918e-02 5.652501e-02 1.844373e-06 -2.014080e-03
165            8.127402e-02 4.819617e-05 5.191916e-02 2.475052e-02 4.635108e-05 5.393312e-02 5.652350e-02 1.845083e-06 -2.013968e-03
166            8.127285e-02 4.815273e-05 5.190447e-02 2.475081e-02 4.630658e-05 5.391833e-02 5.652204e-02 1.846151e-06 -2.013867e-03
167            8.127196e-02 4.811342e-05 5.189126e-02 2.475135e-02 4.626627e-05 5.390503e-02 5.652061e-02 1.847152e-06 -2.013777e-03
168            8.127135e-02 4.807877e-05 5.187952e-02 2.475212e-02 4.623067e-05 5.389322e-02 5.651923e-02 1.848096e-06 -2.013698e-03
169            8.127097e-02 4.804827e-05 5.186909e-02 2.475309e-02 4.619927e-05 5.388272e-02 5.651788e-02 1.848995e-06 -2.013629e-03
170            8.127075e-02 4.802090e-05 5.185974e-02 2.475418e-02 4.617105e-05 5.387331e-02 5.651657e-02 1.849857e-06 -2.013571e-03
171            8.127060e-02 4.799557e-05 5.185119e-02 2.475530e-02 4.614489e-05 5.386471e-02 5.651530e-02 1.850681e-06 -2.013522e-03
172            8.127043e-02 4.797135e-05 5.184321e-02 2.475637e-02 4.611988e-05 5.385670e-02 5.651406e-02 1.851470e-06 -2.013482e-03
173            8.127019e-02 4.794757e-05 5.183563e-02 2.475734e-02 4.609534e-05 5.384908e-02 5.651285e-02 1.852231e-06 -2.013450e-03
174            8.126984e-02 4.792382e-05 5.182832e-02 2.475817e-02 4.607085e-05 5.384174e-02 5.651168e-02 1.852966e-06 -2.013426e-03
175            8.126939e-02 4.789982e-05 5.182122e-02 2.475886e-02 4.604614e-05 5.383462e-02 5.651053e-02 1.853680e-06 -2.013407e-03
176            8.126810e-02 4.789176e-05 5.181628e-02 2.475869e-02 4.603743e-05 5.382968e-02 5.650942e-02 1.854333e-06 -2.013397e-03
177            8.126738e-02 4.786255e-05 5.180870e-02 2.475905e-02 4.600777e-05 5.382209e-02 5.650833e-02 1.854778e-06 -2.013391e-03
178            8.126664e-02 4.783160e-05 5.180142e-02 2.475936e-02 4.597603e-05 5.381481e-02 5.650728e-02 1.855563e-06 -2.013389e-03
179            8.126531e-02 4.781872e-05 5.179647e-02 2.475906e-02 4.596245e-05 5.380986e-02 5.650625e-02 1.856262e-06 -2.013392e-03
180            8.126458e-02 4.778352e-05 5.178942e-02 2.475933e-02 4.592679e-05 5.380282e-02 5.650525e-02 1.856732e-06 -2.013398e-03
181            8.126401e-02 4.774804e-05 5.178304e-02 2.475972e-02 4.589050e-05 5.379644e-02 5.650429e-02 1.857535e-06 -2.013406e-03
182            8.126291e-02 4.773376e-05 5.177879e-02 2.475957e-02 4.587552e-05 5.379221e-02 5.650334e-02 1.858239e-06 -2.013418e-03
183            8.126261e-02 4.769842e-05 5.177326e-02 2.476018e-02 4.583970e-05 5.378670e-02 5.650243e-02 1.858718e-06 -2.013434e-03
184            8.126250e-02 4.766454e-05 5.176845e-02 2.476096e-02 4.580502e-05 5.378190e-02 5.650154e-02 1.859515e-06 -2.013450e-03
185            8.126256e-02 4.763382e-05 5.176434e-02 2.476187e-02 4.577356e-05 5.377781e-02 5.650068e-02 1.860257e-06 -2.013468e-03
186            8.126275e-02 4.760731e-05 5.176083e-02 2.476290e-02 4.574636e-05 5.377432e-02 5.649985e-02 1.860956e-06 -2.013489e-03
187            8.126301e-02 4.758512e-05 5.175781e-02 2.476397e-02 4.572349e-05 5.377133e-02 5.649904e-02 1.861627e-06 -2.013511e-03
188            8.126330e-02 4.756652e-05 5.175514e-02 2.476504e-02 4.570424e-05 5.376867e-02 5.649825e-02 1.862277e-06 -2.013536e-03
189            8.126353e-02 4.755041e-05 5.175268e-02 2.476604e-02 4.568750e-05 5.376625e-02 5.649749e-02 1.862915e-06 -2.013563e-03
190            8.126369e-02 4.753561e-05 5.175036e-02 2.476694e-02 4.567207e-05 5.376395e-02 5.649675e-02 1.863544e-06 -2.013591e-03
191            8.126373e-02 4.752094e-05 5.174811e-02 2.476770e-02 4.565678e-05 5.376173e-02 5.649603e-02 1.864167e-06 -2.013620e-03
192            8.126302e-02 4.751588e-05 5.174607e-02 2.476769e-02 4.565114e-05 5.375972e-02 5.649533e-02 1.864739e-06 -2.013652e-03
193            8.126283e-02 4.749730e-05 5.174370e-02 2.476817e-02 4.563211e-05 5.375738e-02 5.649465e-02 1.865191e-06 -2.013684e-03
194            8.126257e-02 4.747545e-05 5.174143e-02 2.476857e-02 4.560955e-05 5.375515e-02 5.649400e-02 1.865892e-06 -2.013715e-03
195            8.126230e-02 4.745114e-05 5.173934e-02 2.476894e-02 4.558457e-05 5.375308e-02 5.649336e-02 1.866568e-06 -2.013745e-03
196            8.126154e-02 4.743986e-05 5.173752e-02 2.476879e-02 4.557268e-05 5.375130e-02 5.649275e-02 1.867186e-06 -2.013776e-03
197            8.126128e-02 4.741090e-05 5.173572e-02 2.476913e-02 4.554322e-05 5.374952e-02 5.649215e-02 1.867685e-06 -2.013807e-03
198            8.126109e-02 4.738047e-05 5.173417e-02 2.476952e-02 4.551206e-05 5.374801e-02 5.649157e-02 1.868408e-06 -2.013835e-03
199            8.126100e-02 4.735026e-05 5.173290e-02 2.476999e-02 4.548116e-05 5.374676e-02 5.649102e-02 1.869102e-06 -2.013863e-03
200            8.126100e-02 4.732169e-05 5.173188e-02 2.477052e-02 4.545192e-05 5.374577e-02 5.649048e-02 1.869772e-06 -2.013890e-03
201            8.126108e-02 4.729537e-05 5.173109e-02 2.477112e-02 4.542494e-05 5.374500e-02 5.648996e-02 1.870425e-06 -2.013918e-03
202            8.126120e-02 4.727138e-05 5.173046e-02 2.477175e-02 4.540032e-05 5.374440e-02 5.648945e-02 1.871068e-06 -2.013944e-03
203            8.126134e-02 4.724938e-05 5.172994e-02 2.477238e-02 4.537768e-05 5.374392e-02 5.648897e-02 1.871703e-06 -2.013971e-03
204            8.126147e-02 4.722866e-05 5.172950e-02 2.477297e-02 4.535633e-05 5.374349e-02 5.648850e-02 1.872330e-06 -2.013998e-03
205            8.126155e-02 4.720851e-05 5.172908e-02 2.477351e-02 4.533556e-05 5.374310e-02 5.648804e-02 1.872948e-06 -2.014024e-03
206            8.126158e-02 4.718827e-05 5.172868e-02 2.477398e-02 4.531471e-05 5.374273e-02 5.648760e-02 1.873559e-06 -2.014049e-03
207            8.126156e-02 4.716736e-05 5.172829e-02 2.477438e-02 4.529320e-05 5.374236e-02 5.648718e-02 1.874160e-06 -2.014074e-03
208            8.126149e-02 4.714548e-05 5.172791e-02 2.477472e-02 4.527073e-05 5.374201e-02 5.648677e-02 1.874754e-06 -2.014098e-03
209            8.126163e-02 4.712423e-05 5.172827e-02 2.477526e-02 4.524875e-05 5.374239e-02 5.648637e-02 1.875476e-06 -2.014120e-03
210            8.126187e-02 4.710196e-05 5.172899e-02 2.477587e-02 4.522580e-05 5.374314e-02 5.648599e-02 1.876155e-06 -2.014144e-03
211            8.126209e-02 4.707769e-05 5.172977e-02 2.477646e-02 4.520088e-05 5.374394e-02 5.648562e-02 1.876810e-06 -2.014169e-03
212            8.126222e-02 4.705098e-05 5.173040e-02 2.477696e-02 4.517353e-05 5.374460e-02 5.648527e-02 1.877446e-06 -2.014195e-03
213            8.126225e-02 4.702184e-05 5.173077e-02 2.477733e-02 4.514378e-05 5.374499e-02 5.648492e-02 1.878061e-06 -2.014220e-03
214            8.126224e-02 4.699064e-05 5.173099e-02 2.477765e-02 4.511199e-05 5.374524e-02 5.648459e-02 1.878654e-06 -2.014252e-03
215            8.126211e-02 4.695814e-05 5.173097e-02 2.477784e-02 4.507891e-05 5.374525e-02 5.648427e-02 1.879227e-06 -2.014274e-03
216            8.126197e-02 4.692517e-05 5.173092e-02 2.477801e-02 4.504540e-05 5.374522e-02 5.648397e-02 1.879771e-06 -2.014301e-03
217            8.126183e-02 4.689236e-05 5.173088e-02 2.477816e-02 4.501207e-05 5.374521e-02 5.648367e-02 1.880292e-06 -2.014326e-03
218            8.126171e-02 4.686027e-05 5.173092e-02 2.477832e-02 4.497948e-05 5.374527e-02 5.648339e-02 1.880794e-06 -2.014348e-03
219            8.126160e-02 4.682922e-05 5.173106e-02 2.477849e-02 4.494794e-05 5.374543e-02 5.648311e-02 1.881278e-06 -2.014369e-03
220            8.126151e-02 4.679934e-05 5.173129e-02 2.477867e-02 4.491760e-05 5.374567e-02 5.648285e-02 1.881742e-06 -2.014387e-03
221            8.126145e-02 4.677054e-05 5.173159e-02 2.477885e-02 4.488835e-05 5.374599e-02 5.648260e-02 1.882186e-06 -2.014403e-03
222            8.126139e-02 4.674270e-05 5.173193e-02 2.477904e-02 4.486009e-05 5.374634e-02 5.648235e-02 1.882610e-06 -2.014418e-03
223            8.126134e-02 4.671567e-05 5.173227e-02 2.477922e-02 4.483266e-05 5.374671e-02 5.648212e-02 1.883012e-06 -2.014433e-03