# Force       
# CofR        : (0.000000e+00 0.000000e+00 0.000000e+00)
#
# Time        	total_x total_y total_z	pressure_x pressure_y pressure_z	viscous_x viscous_y viscous_z
1              1.710099e+00 -2.192562e-02 3.805981e+00 1.582920e+00 -2.189719e-02 3.804649e+00 1.271793e-01 -2.842792e-05 1.331370e-03
2              2.218183e+00 -2.172582e-02 5.106734e+00 2.096046e+00 -2.180188e-02 5.110269e+00 1.221363e-01 7.605669e-05 -3.534782e-03
3              2.084493e+00 -1.709029e-02 4.784996e+00 1.966208e+00 -1.722678e-02 4.793564e+00 1.182846e-01 1.364874e-04 -8.567229e-03
4              1.583095e+00 -9.962152e-03 3.502406e+00 1.467752e+00 -1.013789e-02 3.514677e+00 1.153425e-01 1.757336e-04 -1.227036e-02
5              9.494764e-01 -1.669821e-03 1.872331e+00 8.362163e-01 -1.869343e-03 1.886412e+00 1.132601e-01 1.995224e-04 -1.408159e-02
6              3.660815e-01 6.324217e-03 3.794172e-01 2.541654e-01 6.113863e-03 3.934916e-01 1.119162e-01 2.103545e-04 -1.407441e-02
7              -5.435986e-02 1.292507e-02 -6.720776e-01 -1.654700e-01 1.271287e-02 -6.593532e-01 1.111101e-01 2.122033e-04 -1.272442e-02
8              -2.540084e-01 1.724455e-02 -1.128048e+00 -3.646155e-01 1.703433e-02 -1.117375e+00 1.106072e-01 2.102211e-04 -1.067307e-02
9              -2.841936e-01 1.913340e-02 -1.133979e+00 -3.943623e-01 1.892543e-02 -1.125422e+00 1.101687e-01 2.079784e-04 -8.557284e-03
10             -1.997281e-01 1.877560e-02 -8.374975e-01 -3.093506e-01 1.856541e-02 -8.306584e-01 1.096225e-01 2.101836e-04 -6.839015e-03
11             -5.365417e-02 1.637108e-02 -3.819321e-01 -1.625195e-01 1.615393e-02 -3.761732e-01 1.088653e-01 2.171500e-04 -5.758928e-03
12             1.032635e-01 1.236240e-02 8.946983e-02 -4.624205e-03 1.213600e-02 9.482287e-02 1.078877e-01 2.263994e-04 -5.353047e-03
13             2.335184e-01 7.487670e-03 4.703063e-01 1.267753e-01 7.251888e-03 4.758007e-01 1.067431e-01 2.357818e-04 -5.494395e-03
14             3.170176e-01 2.638443e-03 7.038161e-01 2.114850e-01 2.394922e-03 7.097879e-01 1.055326e-01 2.435202e-04 -5.971792e-03
15             3.495635e-01 -1.261017e-03 7.805744e-01 2.452328e-01 -1.510014e-03 7.871321e-01 1.043307e-01 2.489969e-04 -6.557765e-03
16             3.429791e-01 -3.759869e-03 7.407955e-01 2.397732e-01 -4.012301e-03 7.478608e-01 1.032059e-01 2.524319e-04 -7.065271e-03
17             3.130090e-01 -5.134776e-03 6.304377e-01 2.108044e-01 -5.389088e-03 6.378185e-01 1.022046e-01 2.543119e-04 -7.380794e-03
18             2.726943e-01 -5.309414e-03 4.901257e-01 1.713529e-01 -5.565087e-03 4.975943e-01 1.013414e-01 2.556735e-04 -7.468654e-03
19             2.338715e-01 -4.439528e-03 3.581295e-01 1.332673e-01 -4.696971e-03 3.654829e-01 1.006042e-01 2.574430e-04 -7.353413e-03
20             2.044206e-01 -2.905164e-03 2.603678e-01 1.044534e-01 -3.164850e-03 2.674659e-01 9.996721e-02 2.596856e-04 -7.098177e-03
21             1.876341e-01 -1.197703e-03 2.078257e-01 8.823390e-02 -1.460149e-03 2.146046e-01 9.940023e-02 2.624462e-04 -6.778859e-03
22             1.826696e-01 2.234340e-04 1.971127e-01 8.379435e-02 -4.205294e-05 2.035766e-01 9.887523e-02 2.654869e-04 -6.463971e-03
23             1.857097e-01 1.189346e-03 2.140513e-01 8.733889e-02 9.208112e-04 2.202534e-01 9.837085e-02 2.685349e-04 -6.202101e-03
24             1.930971e-01 1.631593e-03 2.459441e-01 9.522303e-02 1.360141e-03 2.519602e-01 9.787403e-02 2.714523e-04 -6.016019e-03
25             2.015614e-01 1.511930e-03 2.812729e-01 1.041813e-01 1.238139e-03 2.871784e-01 9.738017e-02 2.737911e-04 -5.905472e-03
26             2.087130e-01 9.404200e-04 3.109588e-01 1.118065e-01 6.647562e-04 3.168128e-01 9.690655e-02 2.756638e-04 -5.853999e-03
27             2.131318e-01 7.168958e-05 3.297131e-01 1.166868e-01 -2.051973e-04 3.355512e-01 9.644500e-02 2.768869e-04 -5.838114e-03
28             2.145237e-01 -8.987807e-04 3.363846e-01 1.185212e-01 -1.176391e-03 3.422182e-01 9.600254e-02 2.776103e-04 -5.833627e-03
29             2.134354e-01 -1.810516e-03 3.331566e-01 1.178516e-01 -2.088512e-03 3.389777e-01 9.558380e-02 2.779960e-04 -5.821178e-03
30             2.107134e-01 -2.603838e-03 3.233723e-01 1.155221e-01 -2.882027e-03 3.291615e-01 9.519131e-02 2.781895e-04 -5.789168e-03
31             2.072047e-01 -3.231474e-03 3.102546e-01 1.123789e-01 -3.509759e-03 3.159887e-01 9.482582e-02 2.782844e-04 -5.734080e-03
32             2.036856e-01 -3.655590e-03 2.968694e-01 1.091998e-01 -3.933982e-03 3.025284e-01 9.448587e-02 2.783926e-04 -5.658937e-03
33             2.007031e-01 -3.881236e-03 2.854947e-01 1.065340e-01 -4.159805e-03 2.910655e-01 9.416913e-02 2.785692e-04 -5.570801e-03
34             1.985124e-01 -3.950771e-03 2.772749e-01 1.046397e-01 -4.229500e-03 2.827528e-01 9.387272e-02 2.787296e-04 -5.477884e-03
35             1.971145e-01 -3.925077e-03 2.722956e-01 1.035207e-01 -4.203830e-03 2.776833e-01 9.359379e-02 2.787532e-04 -5.387723e-03
36             1.963532e-01 -3.864930e-03 2.699538e-01 1.030232e-01 -4.143537e-03 2.752593e-01 9.333005e-02 2.786072e-04 -5.305423e-03
37             1.960038e-01 -3.820000e-03 2.692989e-01 1.029240e-01 -4.098251e-03 2.745324e-01 9.307980e-02 2.782516e-04 -5.233510e-03
38             1.957764e-01 -3.833067e-03 2.692113e-01 1.029385e-01 -4.110741e-03 2.743834e-01 9.283792e-02 2.776735e-04 -5.172113e-03
39             1.955827e-01 -3.897206e-03 2.690202e-01 1.029703e-01 -4.174118e-03 2.741392e-01 9.261246e-02 2.769125e-04 -5.119019e-03
40             1.953047e-01 -4.008579e-03 2.682181e-01 1.029057e-01 -4.284484e-03 2.732901e-01 9.239897e-02 2.759050e-04 -5.072037e-03
41             1.948902e-01 -4.155683e-03 2.665982e-01 1.026927e-01 -4.430356e-03 2.716267e-01 9.219751e-02 2.746732e-04 -5.028511e-03
42             1.943574e-01 -4.314658e-03 2.643686e-01 1.023493e-01 -4.588120e-03 2.693546e-01 9.200804e-02 2.734623e-04 -4.986048e-03
43             1.937327e-01 -4.476744e-03 2.616319e-01 1.019024e-01 -4.748825e-03 2.665758e-01 9.183030e-02 2.720809e-04 -4.943888e-03
44             1.930673e-01 -4.633372e-03 2.586235e-01 1.014031e-01 -4.903927e-03 2.635250e-01 9.166418e-02 2.705546e-04 -4.901504e-03
45             1.924196e-01 -4.776146e-03 2.556425e-01 1.009103e-01 -5.045045e-03 2.605014e-01 9.150929e-02 2.688987e-04 -4.858900e-03
46             1.917933e-01 -4.903318e-03 2.528145e-01 1.004283e-01 -5.170459e-03 2.576365e-01 9.136500e-02 2.671409e-04 -4.822092e-03
47             1.912269e-01 -5.011682e-03 2.503189e-01 9.999607e-02 -5.277037e-03 2.551043e-01 9.123080e-02 2.653553e-04 -4.785398e-03
48             1.906961e-01 -5.106271e-03 2.480904e-01 9.959030e-02 -5.369840e-03 2.528397e-01 9.110577e-02 2.635686e-04 -4.749318e-03
49             1.902545e-01 -5.184950e-03 2.462270e-01 9.926434e-02 -5.446744e-03 2.509411e-01 9.099014e-02 2.617945e-04 -4.714041e-03
50             1.898899e-01 -5.251451e-03 2.446465e-01 9.900708e-02 -5.511477e-03 2.493266e-01 9.088280e-02 2.600259e-04 -4.680174e-03
51             1.895837e-01 -5.309161e-03 2.432477e-01 9.880051e-02 -5.567407e-03 2.478957e-01 9.078323e-02 2.582461e-04 -4.648021e-03
52             1.893159e-01 -5.360732e-03 2.419329e-01 9.862488e-02 -5.617175e-03 2.465506e-01 9.069100e-02 2.564435e-04 -4.617704e-03
53             1.890416e-01 -5.408656e-03 2.405437e-01 9.843514e-02 -5.663268e-03 2.451330e-01 9.060646e-02 2.546123e-04 -4.589247e-03
54             1.887721e-01 -5.451547e-03 2.391352e-01 9.824345e-02 -5.704322e-03 2.436975e-01 9.052868e-02 2.527749e-04 -4.562337e-03
55             1.885219e-01 -5.488560e-03 2.377847e-01 9.806474e-02 -5.739490e-03 2.423215e-01 9.045720e-02 2.509302e-04 -4.536761e-03
56             1.882950e-01 -5.520103e-03 2.365185e-01 9.790330e-02 -5.769186e-03 2.410309e-01 9.039172e-02 2.490828e-04 -4.512340e-03
57             1.880851e-01 -5.547424e-03 2.353081e-01 9.775317e-02 -5.794655e-03 2.397970e-01 9.033193e-02 2.472309e-04 -4.488929e-03
58             1.878840e-01 -5.571752e-03 2.341144e-01 9.760653e-02 -5.817133e-03 2.385808e-01 9.027749e-02 2.453811e-04 -4.466445e-03
59             1.876752e-01 -5.593836e-03 2.329188e-01 9.745923e-02 -5.837322e-03 2.373629e-01 9.021595e-02 2.434857e-04 -4.444105e-03
60             1.874694e-01 -5.613908e-03 2.317162e-01 9.730909e-02 -5.855526e-03 2.361390e-01 9.016031e-02 2.416178e-04 -4.422739e-03
61             1.872671e-01 -5.631931e-03 2.305130e-01 9.715664e-02 -5.871726e-03 2.349154e-01 9.011044e-02 2.397944e-04 -4.402366e-03
62             1.870692e-01 -5.647657e-03 2.293172e-01 9.700322e-02 -5.885675e-03 2.337002e-01 9.006602e-02 2.380174e-04 -4.383002e-03
63             1.868789e-01 -5.660625e-03 2.281466e-01 9.685221e-02 -5.896916e-03 2.325112e-01 9.002665e-02 2.362910e-04 -4.364654e-03
64             1.867033e-01 -5.670331e-03 2.270409e-01 9.671146e-02 -5.904955e-03 2.313882e-01 8.999188e-02 2.346240e-04 -4.347311e-03
65             1.865501e-01 -5.676606e-03 2.260380e-01 9.658879e-02 -5.909623e-03 2.303690e-01 8.996132e-02 2.330173e-04 -4.330945e-03
66             1.864202e-01 -5.679681e-03 2.251427e-01 9.648566e-02 -5.911155e-03 2.294582e-01 8.993459e-02 2.314744e-04 -4.315516e-03
67             1.863084e-01 -5.679956e-03 2.243273e-01 9.639705e-02 -5.909953e-03 2.286282e-01 8.991137e-02 2.299968e-04 -4.300986e-03
68             1.862073e-01 -5.677820e-03 2.235556e-01 9.631598e-02 -5.906399e-03 2.278429e-01 8.989130e-02 2.285796e-04 -4.287322e-03
69             1.861111e-01 -5.673632e-03 2.228009e-01 9.623698e-02 -5.900858e-03 2.270754e-01 8.987408e-02 2.272257e-04 -4.274489e-03
70             1.860164e-01 -5.667784e-03 2.220503e-01 9.615705e-02 -5.893717e-03 2.263127e-01 8.985938e-02 2.259334e-04 -4.262450e-03
71             1.859220e-01 -5.660660e-03 2.213007e-01 9.607499e-02 -5.885364e-03 2.255518e-01 8.984697e-02 2.247040e-04 -4.251165e-03
72             1.858274e-01 -5.652605e-03 2.205551e-01 9.599082e-02 -5.876142e-03 2.247957e-01 8.983659e-02 2.235367e-04 -4.240599e-03
73             1.857333e-01 -5.643901e-03 2.198197e-01 9.590527e-02 -5.866331e-03 2.240505e-01 8.982800e-02 2.224303e-04 -4.230712e-03
74             1.856408e-01 -5.634794e-03 2.191040e-01 9.581986e-02 -5.856177e-03 2.233254e-01 8.982099e-02 2.213833e-04 -4.221476e-03
75             1.855523e-01 -5.625536e-03 2.184201e-01 9.573688e-02 -5.845930e-03 2.226329e-01 8.981537e-02 2.203942e-04 -4.212859e-03
76             1.854697e-01 -5.616350e-03 2.177799e-01 9.565876e-02 -5.835813e-03 2.219847e-01 8.981098e-02 2.194624e-04 -4.204831e-03
77             1.853946e-01 -5.607376e-03 2.171896e-01 9.558700e-02 -5.825963e-03 2.213869e-01 8.980765e-02 2.185867e-04 -4.197362e-03
78             1.853267e-01 -5.598625e-03 2.166468e-01 9.552149e-02 -5.816389e-03 2.208373e-01 8.980524e-02 2.177644e-04 -4.190425e-03
79             1.852658e-01 -5.590010e-03 2.161434e-01 9.546095e-02 -5.807016e-03 2.203275e-01 8.980490e-02 2.170059e-04 -4.184119e-03
80             1.852089e-01 -5.581453e-03 2.156701e-01 9.540383e-02 -5.797749e-03 2.198484e-01 8.980503e-02 2.162963e-04 -4.178282e-03
81             1.851543e-01 -5.572918e-03 2.152199e-01 9.534879e-02 -5.788552e-03 2.193928e-01 8.980552e-02 2.156344e-04 -4.172890e-03
82             1.851013e-01 -5.564433e-03 2.147883e-01 9.529496e-02 -5.779453e-03 2.189562e-01 8.980629e-02 2.150193e-04 -4.167919e-03
83             1.850492e-01 -5.556077e-03 2.143736e-01 9.524191e-02 -5.770527e-03 2.185369e-01 8.980730e-02 2.144498e-04 -4.163349e-03
84             1.849980e-01 -5.547950e-03 2.139756e-01 9.518951e-02 -5.761875e-03 2.181347e-01 8.980849e-02 2.139250e-04 -4.159158e-03
85             1.849477e-01 -5.540153e-03 2.135951e-01 9.513786e-02 -5.753597e-03 2.177504e-01 8.980982e-02 2.134438e-04 -4.155324e-03
86             1.848985e-01 -5.532783e-03 2.132337e-01 9.508723e-02 -5.745788e-03 2.173855e-01 8.981127e-02 2.130049e-04 -4.151827e-03
87             1.848509e-01 -5.525940e-03 2.128933e-01 9.503809e-02 -5.738547e-03 2.170420e-01 8.981280e-02 2.126070e-04 -4.148646e-03
88             1.848054e-01 -5.519724e-03 2.125763e-01 9.499104e-02 -5.731973e-03 2.167220e-01 8.981439e-02 2.122481e-04 -4.145762e-03
89             1.847626e-01 -5.514211e-03 2.122840e-01 9.494662e-02 -5.726137e-03 2.164272e-01 8.981601e-02 2.119263e-04 -4.143156e-03
90             1.847228e-01 -5.509422e-03 2.120165e-01 9.490511e-02 -5.721061e-03 2.161573e-01 8.981767e-02 2.116395e-04 -4.140810e-03
91             1.846857e-01 -5.505326e-03 2.117720e-01 9.486639e-02 -5.716712e-03 2.159107e-01 8.981932e-02 2.113861e-04 -4.138708e-03
92             1.846511e-01 -5.501859e-03 2.115477e-01 9.483012e-02 -5.713023e-03 2.156845e-01 8.982097e-02 2.111640e-04 -4.136833e-03
93             1.846195e-01 -5.499627e-03 2.113550e-01 9.479731e-02 -5.710600e-03 2.154902e-01 8.982219e-02 2.109724e-04 -4.135157e-03
94             1.845902e-01 -5.498195e-03 2.111844e-01 9.476674e-02 -5.709006e-03 2.153181e-01 8.982343e-02 2.108107e-04 -4.133691e-03
95             1.845622e-01 -5.497202e-03 2.110285e-01 9.473752e-02 -5.707878e-03 2.151610e-01 8.982466e-02 2.106764e-04 -4.132429e-03
96             1.845350e-01 -5.496400e-03 2.108824e-01 9.470912e-02 -5.706967e-03 2.150138e-01 8.982588e-02 2.105675e-04 -4.131354e-03
97             1.845085e-01 -5.495650e-03 2.107435e-01 9.468139e-02 -5.706132e-03 2.148739e-01 8.982709e-02 2.104818e-04 -4.130448e-03
98             1.844827e-01 -5.494903e-03 2.106108e-01 9.465440e-02 -5.705320e-03 2.147405e-01 8.982829e-02 2.104171e-04 -4.129695e-03
99             1.844578e-01 -5.494171e-03 2.104846e-01 9.462833e-02 -5.704543e-03 2.146137e-01 8.982946e-02 2.103717e-04 -4.129076e-03
100            1.844340e-01 -5.493508e-03 2.103657e-01 9.460343e-02 -5.703852e-03 2.144943e-01 8.983061e-02 2.103436e-04 -4.128576e-03
101            1.844116e-01 -5.492988e-03 2.102550e-01 9.457992e-02 -5.703320e-03 2.143831e-01 8.983172e-02 2.103312e-04 -4.128184e-03
102            1.843908e-01 -5.492687e-03 2.101532e-01 9.455798e-02 -5.703020e-03 2.142811e-01 8.983281e-02 2.103328e-04 -4.127888e-03
103            1.843716e-01 -5.492672e-03 2.100609e-01 9.453770e-02 -5.703019e-03 2.141886e-01 8.983385e-02 2.103469e-04 -4.127679e-03
104            1.843540e-01 -5.492993e-03 2.099782e-01 9.451911e-02 -5.703365e-03 2.141057e-01 8.983486e-02 2.103721e-04 -4.127549e-03
105            1.843380e-01 -5.493677e-03 2.099046e-01 9.450213e-02 -5.704084e-03 2.140321e-01 8.983583e-02 2.104072e-04 -4.127492e-03
106            1.843234e-01 -5.494731e-03 2.098394e-01 9.448661e-02 -5.705182e-03 2.139669e-01 8.983676e-02 2.104507e-04 -4.127501e-03
107            1.843100e-01 -5.496146e-03 2.097817e-01 9.447238e-02 -5.706647e-03 2.139093e-01 8.983764e-02 2.105017e-04 -4.127569e-03
108            1.842977e-01 -5.497898e-03 2.097305e-01 9.445925e-02 -5.708457e-03 2.138582e-01 8.983849e-02 2.105591e-04 -4.127689e-03
109            1.842863e-01 -5.499961e-03 2.096850e-01 9.444705e-02 -5.710583e-03 2.138129e-01 8.983929e-02 2.106219e-04 -4.127855e-03
110            1.842757e-01 -5.502303e-03 2.096445e-01 9.443568e-02 -5.712992e-03 2.137726e-01 8.984005e-02 2.106893e-04 -4.128061e-03
111            1.842658e-01 -5.504893e-03 2.096086e-01 9.442504e-02 -5.715654e-03 2.137369e-01 8.984077e-02 2.107603e-04 -4.128302e-03
112            1.842566e-01 -5.507699e-03 2.095767e-01 9.441510e-02 -5.718534e-03 2.137053e-01 8.984146e-02 2.108342e-04 -4.128571e-03
113            1.842479e-01 -5.510690e-03 2.095486e-01 9.440580e-02 -5.721601e-03 2.136775e-01 8.984210e-02 2.109104e-04 -4.128863e-03
114            1.842398e-01 -5.513839e-03 2.095241e-01 9.439713e-02 -5.724827e-03 2.136533e-01 8.984270e-02 2.109881e-04 -4.129175e-03
115            1.842323e-01 -5.517121e-03 2.095029e-01 9.438905e-02 -5.728188e-03 2.136324e-01 8.984327e-02 2.110667e-04 -4.129501e-03
116            1.842253e-01 -5.520514e-03 2.094848e-01 9.438152e-02 -5.731660e-03 2.136146e-01 8.984380e-02 2.111456e-04 -4.129838e-03
117            1.842188e-01 -5.523989e-03 2.094695e-01 9.437454e-02 -5.735213e-03 2.135997e-01 8.984430e-02 2.112242e-04 -4.130183e-03
118            1.842128e-01 -5.527502e-03 2.094569e-01 9.436808e-02 -5.738804e-03 2.135874e-01 8.984476e-02 2.113020e-04 -4.130533e-03
119            1.842073e-01 -5.530996e-03 2.094464e-01 9.436215e-02 -5.742374e-03 2.135773e-01 8.984519e-02 2.113786e-04 -4.130885e-03
120            1.842023e-01 -5.534423e-03 2.094377e-01 9.435673e-02 -5.745877e-03 2.135689e-01 8.984560e-02 2.114536e-04 -4.131237e-03
121            1.841978e-01 -5.537765e-03 2.094305e-01 9.435180e-02 -5.749292e-03 2.135621e-01 8.984597e-02 2.115267e-04 -4.131587e-03
122            1.841937e-01 -5.541030e-03 2.094247e-01 9.434734e-02 -5.752628e-03 2.135566e-01 8.984632e-02 2.115975e-04 -4.131932e-03
123            1.841899e-01 -5.544237e-03 2.094203e-01 9.434330e-02 -5.755903e-03 2.135526e-01 8.984664e-02 2.116659e-04 -4.132272e-03
124            1.841866e-01 -5.547401e-03 2.094173e-01 9.433967e-02 -5.759133e-03 2.135499e-01 8.984694e-02 2.117315e-04 -4.132605e-03
125            1.841836e-01 -5.550528e-03 2.094157e-01 9.433641e-02 -5.762322e-03 2.135486e-01 8.984722e-02 2.117943e-04 -4.132929e-03
126            1.841810e-01 -5.553617e-03 2.094153e-01 9.433352e-02 -5.765471e-03 2.135486e-01 8.984748e-02 2.118539e-04 -4.133244e-03
127            1.841787e-01 -5.556671e-03 2.094163e-01 9.433096e-02 -5.768581e-03 2.135498e-01 8.984771e-02 2.119103e-04 -4.133549e-03
128            1.841767e-01 -5.559701e-03 2.094185e-01 9.432873e-02 -5.771665e-03 2.135524e-01 8.984793e-02 2.119634e-04 -4.133841e-03
129            1.841749e-01 -5.562717e-03 2.094221e-01 9.432680e-02 -5.774730e-03 2.135562e-01 8.984813e-02 2.120129e-04 -4.134122e-03
130            1.841735e-01 -5.565672e-03 2.094265e-01 9.432515e-02 -5.777731e-03 2.135609e-01 8.984832e-02 2.120588e-04 -4.134390e-03
131            1.841721e-01 -5.568451e-03 2.094310e-01 9.432366e-02 -5.780553e-03 2.135657e-01 8.984848e-02 2.121014e-04 -4.134645e-03
132            1.841709e-01 -5.570963e-03 2.094348e-01 9.432224e-02 -5.783104e-03 2.135697e-01 8.984864e-02 2.121406e-04 -4.134887e-03
133            1.841697e-01 -5.573211e-03 2.094377e-01 9.432088e-02 -5.785388e-03 2.135728e-01 8.984878e-02 2.121766e-04 -4.135116e-03
134            1.841686e-01 -5.575271e-03 2.094403e-01 9.431965e-02 -5.787480e-03 2.135756e-01 8.984892e-02 2.122095e-04 -4.135333e-03
135            1.841676e-01 -5.577223e-03 2.094431e-01 9.431858e-02 -5.789463e-03 2.135786e-01 8.984904e-02 2.122394e-04 -4.135537e-03
136            1.841668e-01 -5.578413e-03 2.094433e-01 9.431767e-02 -5.790680e-03 2.135790e-01 8.984916e-02 2.122665e-04 -4.135730e-03
137            1.841665e-01 -5.580526e-03 2.094480e-01 9.431725e-02 -5.792817e-03 2.135839e-01 8.984927e-02 2.122910e-04 -4.135913e-03
138            1.841664e-01 -5.582592e-03 2.094536e-01 9.431699e-02 -5.794905e-03 2.135897e-01 8.984936e-02 2.123129e-04 -4.136081e-03
139            1.841663e-01 -5.584593e-03 2.094602e-01 9.431689e-02 -5.796925e-03 2.135964e-01 8.984945e-02 2.123319e-04 -4.136236e-03
140            1.841664e-01 -5.586502e-03 2.094673e-01 9.431691e-02 -5.798850e-03 2.136037e-01 8.984953e-02 2.123481e-04 -4.136378e-03
141            1.841666e-01 -5.588252e-03 2.094744e-01 9.431695e-02 -5.800614e-03 2.136109e-01 8.984961e-02 2.123618e-04 -4.136509e-03
142            1.841666e-01 -5.589773e-03 2.094805e-01 9.431690e-02 -5.802146e-03 2.136172e-01 8.984968e-02 2.123732e-04 -4.136629e-03
143            1.841665e-01 -5.591037e-03 2.094854e-01 9.431671e-02 -5.803420e-03 2.136222e-01 8.984975e-02 2.123827e-04 -4.136739e-03
144            1.841662e-01 -5.592089e-03 2.094892e-01 9.431643e-02 -5.804479e-03 2.136261e-01 8.984981e-02 2.123905e-04 -4.136841e-03
145            1.841660e-01 -5.593007e-03 2.094925e-01 9.431616e-02 -5.805404e-03 2.136295e-01 8.984987e-02 2.123967e-04 -4.136934e-03
146            1.841659e-01 -5.593850e-03 2.094958e-01 9.431595e-02 -5.806252e-03 2.136328e-01 8.984993e-02 2.124016e-04 -4.137019e-03
147            1.841658e-01 -5.594640e-03 2.094991e-01 9.431583e-02 -5.807045e-03 2.136362e-01 8.984998e-02 2.124054e-04 -4.137097e-03
148            1.841658e-01 -5.595385e-03 2.095026e-01 9.431580e-02 -5.807793e-03 2.136397e-01 8.985003e-02 2.124080e-04 -4.137166e-03
149            1.841659e-01 -5.596088e-03 2.095063e-01 9.431586e-02 -5.808497e-03 2.136435e-01 8.985008e-02 2.124097e-04 -4.137229e-03
150            1.841661e-01 -5.596749e-03 2.095102e-01 9.431602e-02 -5.809159e-03 2.136475e-01 8.985012e-02 2.124104e-04 -4.137285e-03
151            1.841664e-01 -5.597360e-03 2.095142e-01 9.431626e-02 -5.809771e-03 2.136515e-01 8.985016e-02 2.124103e-04 -4.137335e-03
152            1.841667e-01 -5.597903e-03 2.095181e-01 9.431653e-02 -5.810312e-03 2.136555e-01 8.985021e-02 2.124095e-04 -4.137379e-03
153            1.841670e-01 -5.598359e-03 2.095215e-01 9.431680e-02 -5.810767e-03 2.136589e-01 8.985024e-02 2.124081e-04 -4.137418e-03
154            1.841673e-01 -5.598731e-03 2.095244e-01 9.431701e-02 -5.811137e-03 2.136618e-01 8.985028e-02 2.124061e-04 -4.137453e-03
155            1.841675e-01 -5.599038e-03 2.095268e-01 9.431720e-02 -5.811442e-03 2.136643e-01 8.985032e-02 2.124038e-04 -4.137483e-03
156            1.841677e-01 -5.599300e-03 2.095290e-01 9.431738e-02 -5.811701e-03 2.136666e-01 8.985036e-02 2.124012e-04 -4.137510e-03
157            1.841680e-01 -5.599529e-03 2.095311e-01 9.431759e-02 -5.811928e-03 2.136687e-01 8.985039e-02 2.123983e-04 -4.137533e-03
158            1.841682e-01 -5.599731e-03 2.095332e-01 9.431782e-02 -5.812126e-03 2.136707e-01 8.985042e-02 2.123953e-04 -4.137553e-03
159            1.841685e-01 -5.599907e-03 2.095351e-01 9.431808e-02 -5.812299e-03 2.136727e-01 8.985045e-02 2.123921e-04 -4.137570e-03
