# Force       
# CofR        : (0.000000e+00 0.000000e+00 0.000000e+00)
#
# Time        	total_x total_y total_z	pressure_x pressure_y pressure_z	viscous_x viscous_y viscous_z
1              3.487190e+00 2.924646e-01 4.377723e-03 3.202250e+00 2.923578e-01 4.373992e-03 2.849395e-01 1.067814e-04 3.731472e-06
2              4.683557e+00 4.110174e-01 -1.341123e-03 4.399133e+00 4.109784e-01 -1.323320e-03 2.844243e-01 3.902400e-05 -1.780271e-05
3              4.543384e+00 4.000738e-01 -9.951916e-03 4.258102e+00 4.002243e-01 -9.918222e-03 2.852824e-01 -1.504890e-04 -3.369399e-05
4              3.591867e+00 3.078213e-01 -1.746670e-02 3.305189e+00 3.081260e-01 -1.742419e-02 2.866777e-01 -3.047041e-04 -4.250581e-05
5              2.314267e+00 1.807128e-01 -1.954802e-02 2.025753e+00 1.811108e-01 -1.950554e-02 2.885141e-01 -3.979948e-04 -4.247408e-05
6              1.098447e+00 5.810397e-02 -1.545057e-02 8.077248e-01 5.853835e-02 -1.541569e-02 2.907220e-01 -4.343789e-04 -3.487451e-05
7              1.871816e-01 -3.403421e-02 -5.577225e-03 -1.059401e-01 -3.360680e-02 -5.554804e-03 2.931217e-01 -4.274089e-04 -2.242049e-05
8              -2.862893e-01 -8.129350e-02 3.902323e-03 -5.817611e-01 -8.090381e-02 3.911312e-03 2.954718e-01 -3.896913e-04 -8.989398e-06
9              -4.174439e-01 -9.283772e-02 1.536336e-02 -7.149920e-01 -9.250284e-02 1.536162e-02 2.975481e-01 -3.348798e-04 1.742420e-06
10             -3.068180e-01 -7.860694e-02 2.522856e-02 -6.059673e-01 -7.833274e-02 2.522065e-02 2.991493e-01 -2.742023e-04 7.907435e-06
11             -6.548409e-02 -4.868478e-02 3.069676e-02 -3.656515e-01 -4.846987e-02 3.068798e-02 3.001674e-01 -2.149041e-04 8.785811e-06
12             2.117004e-01 -1.302199e-02 2.980741e-02 -8.890386e-02 -1.286093e-02 2.980214e-02 3.006042e-01 -1.610602e-04 5.276449e-06
13             4.536051e-01 1.995693e-02 2.265647e-02 1.530545e-01 2.007180e-02 2.265728e-02 3.005506e-01 -1.148688e-04 -8.051006e-07
14             6.202198e-01 4.450501e-02 1.128559e-02 3.200729e-01 4.458202e-02 1.129304e-02 3.001469e-01 -7.701696e-05 -7.450664e-06
15             7.005457e-01 5.797494e-02 -8.266011e-04 4.010020e-01 5.802250e-02 -8.138283e-04 2.995437e-01 -4.756087e-05 -1.277287e-05
16             7.093604e-01 6.140467e-02 -1.093976e-02 4.105008e-01 6.142992e-02 -1.092406e-02 2.988595e-01 -2.525678e-05 -1.569933e-05
17             6.748390e-01 5.751245e-02 -1.864349e-02 3.766527e-01 5.752062e-02 -1.862772e-02 2.981864e-01 -8.165085e-06 -1.576696e-05
18             6.213261e-01 4.888340e-02 -2.300256e-02 3.236184e-01 4.887828e-02 -2.298900e-02 2.977077e-01 5.120654e-06 -1.356311e-05
19             5.679562e-01 3.827481e-02 -2.348117e-02 2.706759e-01 3.825915e-02 -2.347117e-02 2.972804e-01 1.565855e-05 -1.000011e-05
20             5.273912e-01 2.823714e-02 -2.045542e-02 2.305014e-01 2.821232e-02 -2.044913e-02 2.968899e-01 2.482057e-05 -6.283203e-06
21             5.048012e-01 2.057665e-02 -1.510556e-02 2.082904e-01 2.054336e-02 -1.510215e-02 2.965108e-01 3.328864e-05 -3.411938e-06
22             4.990661e-01 1.603755e-02 -8.958185e-03 2.029458e-01 1.599587e-02 -8.956229e-03 2.961204e-01 4.168104e-05 -1.955650e-06
23             5.055160e-01 1.440026e-02 -3.128661e-03 2.098134e-01 1.435034e-02 -3.126575e-03 2.957026e-01 4.991728e-05 -2.086368e-06
24             5.186484e-01 1.510030e-02 1.701499e-03 2.234027e-01 1.504232e-02 1.705079e-03 2.952457e-01 5.797873e-05 -3.580154e-06
25             5.329602e-01 1.730470e-02 5.000099e-03 2.382145e-01 1.723951e-02 5.006128e-03 2.947457e-01 6.519762e-05 -6.028762e-06
26             5.446534e-01 2.012295e-02 6.728578e-03 2.504434e-01 2.005099e-02 6.736985e-03 2.942099e-01 7.196351e-05 -8.406377e-06
27             5.521487e-01 2.291290e-02 6.965520e-03 2.584979e-01 2.283486e-02 6.975994e-03 2.936507e-01 7.803828e-05 -1.047335e-05
28             5.551706e-01 2.519802e-02 6.021588e-03 2.620915e-01 2.511458e-02 6.033383e-03 2.930791e-01 8.343139e-05 -1.179514e-05
29             5.543674e-01 2.671597e-02 4.328575e-03 2.618621e-01 2.662765e-02 4.340792e-03 2.925053e-01 8.832912e-05 -1.221685e-05
30             5.508514e-01 2.739439e-02 2.339834e-03 2.589139e-01 2.730181e-02 2.351611e-03 2.919374e-01 9.258038e-05 -1.177622e-05
31             5.458100e-01 2.730492e-02 4.445650e-04 2.544288e-01 2.720866e-02 4.551998e-04 2.913812e-01 9.626950e-05 -1.063485e-05
32             5.402869e-01 2.661557e-02 -1.074261e-03 2.494470e-01 2.651614e-02 -1.065226e-03 2.908399e-01 9.942713e-05 -9.035363e-06
33             5.350607e-01 2.554991e-02 -2.058385e-03 2.447459e-01 2.544791e-02 -2.051073e-03 2.903148e-01 1.019967e-04 -7.312768e-06
34             5.305824e-01 2.433734e-02 -2.474320e-03 2.407770e-01 2.423342e-02 -2.468605e-03 2.898055e-01 1.039141e-04 -5.714745e-06
35             5.270289e-01 2.318729e-02 -2.380600e-03 2.377181e-01 2.308213e-02 -2.376213e-03 2.893109e-01 1.051607e-04 -4.387011e-06
36             5.244075e-01 2.227911e-02 -1.915744e-03 2.355779e-01 2.217342e-02 -1.912248e-03 2.888295e-01 1.056895e-04 -3.496363e-06
37             5.226071e-01 2.170749e-02 -1.287269e-03 2.342470e-01 2.160194e-02 -1.284229e-03 2.883601e-01 1.055423e-04 -3.039392e-06
38             5.214220e-01 2.145876e-02 -6.825863e-04 2.335200e-01 2.135399e-02 -6.795933e-04 2.879020e-01 1.047701e-04 -2.992991e-06
39             5.206250e-01 2.146359e-02 -2.134849e-04 2.331703e-01 2.136015e-02 -2.102262e-04 2.874547e-01 1.034411e-04 -3.258772e-06
40             5.200371e-01 2.163875e-02 7.128659e-05 2.330185e-01 2.153709e-02 7.500138e-05 2.870186e-01 1.016571e-04 -3.714783e-06
41             5.195385e-01 2.190250e-02 1.700100e-04 2.329443e-01 2.180293e-02 1.742279e-04 2.865942e-01 9.957147e-05 -4.217932e-06
42             5.190652e-01 2.218517e-02 1.127881e-04 2.328830e-01 2.208784e-02 1.174792e-04 2.861822e-01 9.733006e-05 -4.691103e-06
43             5.185971e-01 2.243464e-02 -5.405803e-05 2.328138e-01 2.233956e-02 -4.899132e-05 2.857833e-01 9.508096e-05 -5.066705e-06
44             5.181537e-01 2.261309e-02 -2.760949e-04 2.327550e-01 2.252017e-02 -2.707955e-04 2.853987e-01 9.291862e-05 -5.299425e-06
45             5.177569e-01 2.269946e-02 -4.922744e-04 2.327280e-01 2.260853e-02 -4.868964e-04 2.850290e-01 9.092963e-05 -5.378016e-06
46             5.174010e-01 2.269734e-02 -6.524681e-04 2.327264e-01 2.260822e-02 -6.471303e-04 2.846746e-01 8.911724e-05 -5.337813e-06
47             5.170648e-01 2.262973e-02 -7.346185e-04 2.327289e-01 2.254225e-02 -7.294046e-04 2.843358e-01 8.747423e-05 -5.213951e-06
48             5.167357e-01 2.252511e-02 -7.415858e-04 2.327231e-01 2.243913e-02 -7.365404e-04 2.840126e-01 8.597427e-05 -5.045445e-06
49             5.164119e-01 2.240838e-02 -6.876600e-04 2.327070e-01 2.232380e-02 -6.827943e-04 2.837048e-01 8.458160e-05 -4.865685e-06
50             5.160925e-01 2.229878e-02 -5.908024e-04 2.326803e-01 2.221556e-02 -5.860837e-04 2.834123e-01 8.321423e-05 -4.718715e-06
51             5.157745e-01 2.221020e-02 -4.704265e-04 2.326400e-01 2.212839e-02 -4.658351e-04 2.831345e-01 8.181483e-05 -4.591412e-06
52             5.154549e-01 2.215049e-02 -3.442665e-04 2.325838e-01 2.207016e-02 -3.397763e-04 2.828711e-01 8.033280e-05 -4.490137e-06
53             5.151314e-01 2.212343e-02 -2.316602e-04 2.325094e-01 2.204469e-02 -2.272290e-04 2.826219e-01 7.873585e-05 -4.431182e-06
54             5.148077e-01 2.212717e-02 -1.479298e-04 2.324209e-01 2.205015e-02 -1.435474e-04 2.823868e-01 7.701427e-05 -4.382435e-06
55             5.144911e-01 2.215478e-02 -9.771428e-05 2.323258e-01 2.207961e-02 -9.338304e-05 2.821652e-01 7.516455e-05 -4.331237e-06
56             5.141865e-01 2.219756e-02 -7.577059e-05 2.322296e-01 2.212431e-02 -7.149017e-05 2.819568e-01 7.324839e-05 -4.280419e-06
57             5.138577e-01 2.224804e-02 -7.225685e-05 2.321328e-01 2.217676e-02 -6.807594e-05 2.817249e-01 7.128056e-05 -4.180911e-06
58             5.135420e-01 2.230104e-02 -7.859459e-05 2.320333e-01 2.223172e-02 -7.454396e-05 2.815087e-01 6.932158e-05 -4.050631e-06
59             5.132377e-01 2.235362e-02 -8.799515e-05 2.319292e-01 2.228624e-02 -8.410713e-05 2.813085e-01 6.737951e-05 -3.888024e-06
60             5.129476e-01 2.240362e-02 -9.669473e-05 2.318236e-01 2.233815e-02 -9.300234e-05 2.811240e-01 6.547093e-05 -3.692390e-06
61             5.126813e-01 2.244852e-02 -1.033279e-04 2.317266e-01 2.238488e-02 -9.984724e-05 2.809546e-01 6.363664e-05 -3.480695e-06
62             5.124450e-01 2.248717e-02 -1.069564e-04 2.316454e-01 2.242529e-02 -1.037063e-04 2.807996e-01 6.188600e-05 -3.250156e-06
63             5.122377e-01 2.252091e-02 -1.072739e-04 2.315795e-01 2.246069e-02 -1.042528e-04 2.806582e-01 6.021848e-05 -3.021027e-06
64             5.120547e-01 2.255290e-02 -1.045560e-04 2.315252e-01 2.249427e-02 -1.017423e-04 2.805295e-01 5.862915e-05 -2.813713e-06
65             5.118927e-01 2.258618e-02 -9.950201e-05 2.314800e-01 2.252906e-02 -9.687727e-05 2.804127e-01 5.712148e-05 -2.624738e-06
66             5.117491e-01 2.262357e-02 -9.253339e-05 2.314422e-01 2.256786e-02 -9.008779e-05 2.803069e-01 5.570733e-05 -2.445600e-06
67             5.116227e-01 2.266753e-02 -8.364513e-05 2.314114e-01 2.261315e-02 -8.135533e-05 2.802112e-01 5.437617e-05 -2.289807e-06
68             5.115158e-01 2.271522e-02 -7.521367e-05 2.313909e-01 2.266208e-02 -7.307200e-05 2.801248e-01 5.313358e-05 -2.141671e-06
69             5.114282e-01 2.276123e-02 -7.045250e-05 2.313812e-01 2.270926e-02 -6.845420e-05 2.800470e-01 5.197084e-05 -1.998302e-06
70             5.113558e-01 2.280315e-02 -6.993443e-05 2.313789e-01 2.275227e-02 -6.807313e-05 2.799770e-01 5.088160e-05 -1.861303e-06
71             5.112944e-01 2.284152e-02 -7.208805e-05 2.313803e-01 2.279166e-02 -7.036160e-05 2.799141e-01 4.985862e-05 -1.726442e-06
72             5.112406e-01 2.287852e-02 -7.495364e-05 2.313828e-01 2.282962e-02 -7.336122e-05 2.798579e-01 4.890134e-05 -1.592417e-06
73             5.111925e-01 2.291554e-02 -7.740930e-05 2.313849e-01 2.286753e-02 -7.594682e-05 2.798075e-01 4.800696e-05 -1.462483e-06
74             5.111481e-01 2.295350e-02 -7.889782e-05 2.313855e-01 2.290632e-02 -7.756233e-05 2.797626e-01 4.717990e-05 -1.335496e-06
75             5.111063e-01 2.299369e-02 -7.921243e-05 2.313836e-01 2.294728e-02 -7.799950e-05 2.797227e-01 4.641685e-05 -1.212930e-06
76             5.110660e-01 2.303402e-02 -7.915701e-05 2.313788e-01 2.298830e-02 -7.806342e-05 2.796871e-01 4.571952e-05 -1.093591e-06
77             5.110280e-01 2.307049e-02 -7.962688e-05 2.313724e-01 2.302540e-02 -7.864799e-05 2.796556e-01 4.508280e-05 -9.788862e-07
78             5.109939e-01 2.310135e-02 -8.072411e-05 2.313662e-01 2.305684e-02 -7.985554e-05 2.796278e-01 4.450158e-05 -8.685696e-07
79             5.109639e-01 2.312730e-02 -8.227619e-05 2.313607e-01 2.308333e-02 -8.151207e-05 2.796032e-01 4.397045e-05 -7.641214e-07
80             5.109370e-01 2.315032e-02 -8.428589e-05 2.313554e-01 2.310683e-02 -8.362053e-05 2.795816e-01 4.348629e-05 -6.653589e-07
81             5.109121e-01 2.317202e-02 -8.693489e-05 2.313495e-01 2.312897e-02 -8.636399e-05 2.795625e-01 4.304641e-05 -5.708997e-07
82             5.108885e-01 2.319292e-02 -9.041166e-05 2.313426e-01 2.315027e-02 -8.993112e-05 2.795459e-01 4.264799e-05 -4.805435e-07
83             5.108653e-01 2.321362e-02 -9.492551e-05 2.313339e-01 2.317133e-02 -9.453230e-05 2.795314e-01 4.229032e-05 -3.932070e-07
84             5.108424e-01 2.323383e-02 -1.005527e-04 2.313237e-01 2.319186e-02 -1.002445e-04 2.795187e-01 4.197159e-05 -3.082171e-07
85             5.108212e-01 2.325201e-02 -1.069102e-04 2.313135e-01 2.321032e-02 -1.066852e-04 2.795077e-01 4.168832e-05 -2.250370e-07
86             5.108031e-01 2.326695e-02 -1.133984e-04 2.313049e-01 2.322552e-02 -1.132550e-04 2.794982e-01 4.143558e-05 -1.434166e-07
87             5.107878e-01 2.327882e-02 -1.197052e-04 2.312977e-01 2.323761e-02 -1.196420e-04 2.794901e-01 4.120866e-05 -6.314801e-08
88             5.107744e-01 2.328848e-02 -1.259051e-04 2.312913e-01 2.324747e-02 -1.259208e-04 2.794831e-01 4.100473e-05 1.569310e-08
89             5.107619e-01 2.329664e-02 -1.321854e-04 2.312847e-01 2.325582e-02 -1.322787e-04 2.794772e-01 4.082172e-05 9.327350e-08
90             5.107496e-01 2.330376e-02 -1.387457e-04 2.312774e-01 2.326310e-02 -1.389152e-04 2.794722e-01 4.065787e-05 1.695595e-07
91             5.107373e-01 2.330998e-02 -1.456505e-04 2.312693e-01 2.326947e-02 -1.458947e-04 2.794680e-01 4.051143e-05 2.441883e-07
92             5.107247e-01 2.331543e-02 -1.530537e-04 2.312601e-01 2.327505e-02 -1.533706e-04 2.794646e-01 4.038045e-05 3.169041e-07
93             5.107116e-01 2.332012e-02 -1.611211e-04 2.312498e-01 2.327985e-02 -1.615094e-04 2.794618e-01 4.026343e-05 3.883180e-07
94             5.106984e-01 2.332395e-02 -1.694979e-04 2.312389e-01 2.328380e-02 -1.699563e-04 2.794595e-01 4.015810e-05 4.584651e-07
95             5.106868e-01 2.332699e-02 -1.773495e-04 2.312289e-01 2.328692e-02 -1.778767e-04 2.794578e-01 4.006179e-05 5.272826e-07
96             5.106772e-01 2.332941e-02 -1.841992e-04 2.312207e-01 2.328944e-02 -1.847939e-04 2.794565e-01 3.997202e-05 5.946471e-07
97             5.106691e-01 2.333138e-02 -1.903655e-04 2.312134e-01 2.329149e-02 -1.910260e-04 2.794557e-01 3.988688e-05 6.604941e-07
98             5.106617e-01 2.333294e-02 -1.962291e-04 2.312066e-01 2.329313e-02 -1.969539e-04 2.794551e-01 3.980500e-05 7.247690e-07
99             5.106543e-01 2.333411e-02 -2.021404e-04 2.311994e-01 2.329438e-02 -2.029278e-04 2.794549e-01 3.972528e-05 7.874124e-07
100            5.106468e-01 2.333494e-02 -2.081118e-04 2.311919e-01 2.329529e-02 -2.089602e-04 2.794549e-01 3.964678e-05 8.483624e-07
101            5.106391e-01 2.333544e-02 -2.141871e-04 2.311839e-01 2.329587e-02 -2.150946e-04 2.794551e-01 3.956875e-05 9.075305e-07
102            5.106310e-01 2.333562e-02 -2.203998e-04 2.311754e-01 2.329613e-02 -2.213646e-04 2.794556e-01 3.949063e-05 9.648052e-07
103            5.106225e-01 2.333546e-02 -2.267745e-04 2.311663e-01 2.329605e-02 -2.277945e-04 2.794562e-01 3.941203e-05 1.020042e-06
104            5.106140e-01 2.333507e-02 -2.330049e-04 2.311570e-01 2.329574e-02 -2.340782e-04 2.794570e-01 3.933251e-05 1.073306e-06
105            5.106066e-01 2.333472e-02 -2.385171e-04 2.311486e-01 2.329547e-02 -2.396414e-04 2.794579e-01 3.925221e-05 1.124229e-06
106            5.106007e-01 2.333453e-02 -2.430713e-04 2.311417e-01 2.329536e-02 -2.442440e-04 2.794589e-01 3.917133e-05 1.172639e-06
107            5.105959e-01 2.333441e-02 -2.469184e-04 2.311359e-01 2.329532e-02 -2.481368e-04 2.794600e-01 3.909020e-05 1.218365e-06
108            5.105919e-01 2.333427e-02 -2.503289e-04 2.311306e-01 2.329527e-02 -2.515891e-04 2.794613e-01 3.900781e-05 1.260187e-06
109            5.105882e-01 2.333404e-02 -2.535430e-04 2.311257e-01 2.329512e-02 -2.548422e-04 2.794625e-01 3.892639e-05 1.299200e-06
110            5.105847e-01 2.333372e-02 -2.565828e-04 2.311209e-01 2.329487e-02 -2.579180e-04 2.794638e-01 3.884634e-05 1.335228e-06
111            5.105816e-01 2.333330e-02 -2.594510e-04 2.311164e-01 2.329453e-02 -2.608192e-04 2.794651e-01 3.876814e-05 1.368200e-06
112            5.105786e-01 2.333281e-02 -2.621489e-04 2.311121e-01 2.329411e-02 -2.635469e-04 2.794665e-01 3.869224e-05 1.398011e-06
113            5.105757e-01 2.333224e-02 -2.646576e-04 2.311079e-01 2.329362e-02 -2.660822e-04 2.794678e-01 3.861908e-05 1.424635e-06
114            5.105730e-01 2.333163e-02 -2.669273e-04 2.311038e-01 2.329308e-02 -2.683753e-04 2.794692e-01 3.854905e-05 1.448025e-06
115            5.105706e-01 2.333104e-02 -2.688427e-04 2.311000e-01 2.329256e-02 -2.703110e-04 2.794705e-01 3.848257e-05 1.468232e-06
116            5.105688e-01 2.333053e-02 -2.703159e-04 2.310969e-01 2.329211e-02 -2.718012e-04 2.794719e-01 3.842006e-05 1.485340e-06
117            5.105692e-01 2.333016e-02 -2.715615e-04 2.310958e-01 2.329180e-02 -2.730608e-04 2.794734e-01 3.836158e-05 1.499292e-06
118            5.105709e-01 2.332989e-02 -2.725178e-04 2.310959e-01 2.329159e-02 -2.740282e-04 2.794750e-01 3.830721e-05 1.510394e-06
119            5.105730e-01 2.332965e-02 -2.731839e-04 2.310965e-01 2.329140e-02 -2.747026e-04 2.794765e-01 3.825722e-05 1.518673e-06
120            5.105750e-01 2.332937e-02 -2.735620e-04 2.310970e-01 2.329116e-02 -2.750862e-04 2.794779e-01 3.821174e-05 1.524171e-06
121            5.105751e-01 2.332887e-02 -2.735994e-04 2.310960e-01 2.329070e-02 -2.751266e-04 2.794792e-01 3.817092e-05 1.527140e-06
122            5.105741e-01 2.332820e-02 -2.733756e-04 2.310937e-01 2.329006e-02 -2.749033e-04 2.794804e-01 3.813512e-05 1.527671e-06
123            5.105725e-01 2.332743e-02 -2.729444e-04 2.310909e-01 2.328933e-02 -2.744704e-04 2.794815e-01 3.810426e-05 1.525987e-06
124            5.105707e-01 2.332667e-02 -2.723306e-04 2.310881e-01 2.328859e-02 -2.738529e-04 2.794826e-01 3.807808e-05 1.522318e-06
125            5.105694e-01 2.332600e-02 -2.715473e-04 2.310856e-01 2.328794e-02 -2.730643e-04 2.794837e-01 3.805630e-05 1.516924e-06
126            5.105687e-01 2.332547e-02 -2.706428e-04 2.310840e-01 2.328744e-02 -2.721529e-04 2.794848e-01 3.803860e-05 1.510036e-06
127            5.105690e-01 2.332512e-02 -2.697122e-04 2.310832e-01 2.328710e-02 -2.712141e-04 2.794858e-01 3.802459e-05 1.501897e-06
128            5.105712e-01 2.332510e-02 -2.687928e-04 2.310843e-01 2.328709e-02 -2.702855e-04 2.794869e-01 3.801404e-05 1.492643e-06
129            5.105744e-01 2.332523e-02 -2.678758e-04 2.310864e-01 2.328723e-02 -2.693582e-04 2.794880e-01 3.800619e-05 1.482386e-06
