/*--------------------------------*- C++ -*----------------------------------*\
| =========                 |                                                 |
| \\      /  F ield         | OpenFOAM: The Open Source CFD Toolbox           |
|  \\    /   O peration     | Version:  2512                                  |
|   \\  /    A nd           | Website:  www.openfoam.com                      |
|    \\/     M anipulation  |                                                 |
\*---------------------------------------------------------------------------*/
FoamFile
{
    version     2.0;
    format      ascii;
    arch        "LSB;label=32;scalar=64";
    class       volScalarField;
    location    "136";
    object      p;
}
// * * * * * * * * * * * * * * * * * * * * * * * * * * * * * * * * * * * * * //

dimensions      [0 2 -2 0 0 0 0];

internalField   nonuniform List<scalar> 
220594
(
6.7629e-05
6.75216e-05
6.72486e-05
6.68105e-05
6.62008e-05
6.53954e-05
6.43605e-05
6.30556e-05
6.14321e-05
5.94329e-05
5.69912e-05
5.40315e-05
5.04704e-05
4.62183e-05
4.11833e-05
3.52757e-05
2.84151e-05
2.05402e-05
1.16206e-05
1.67008e-06
-9.23814e-06
-2.09577e-05
-3.3258e-05
-4.58189e-05
-5.82358e-05
-7.00374e-05
-8.07174e-05
-8.97797e-05
-9.67915e-05
-0.000101436
-0.000103556
-0.000103174
-0.000100486
-9.58328e-05
-8.96484e-05
-8.24027e-05
-7.45508e-05
-6.64946e-05
-5.85613e-05
-5.09967e-05
-4.39691e-05
-3.75789e-05
-3.18714e-05
-2.68502e-05
-2.24891e-05
-1.87425e-05
-1.5554e-05
-1.28621e-05
-1.0605e-05
-8.72359e-06
-7.16311e-06
-5.87422e-06
-4.81333e-06
-3.94256e-06
-3.22938e-06
-2.64622e-06
-2.1699e-06
-1.78112e-06
-1.46391e-06
-1.20512e-06
-9.93993e-07
-8.2174e-07
-6.81207e-07
-5.6659e-07
-4.73173e-07
-3.97115e-07
-3.35249e-07
-2.84933e-07
-2.43929e-07
-2.10327e-07
-1.82489e-07
-1.59018e-07
-1.3873e-07
-1.20626e-07
-1.0387e-07
-8.77664e-08
-7.17398e-08
-5.54028e-08
-3.82028e-08
-2.42172e-08
6.76599e-05
6.75535e-05
6.72831e-05
6.68491e-05
6.6245e-05
6.54468e-05
6.44209e-05
6.31268e-05
6.15162e-05
5.95318e-05
5.71068e-05
5.41655e-05
5.0624e-05
4.63922e-05
4.13766e-05
3.54862e-05
2.86384e-05
2.07694e-05
1.18455e-05
1.87761e-06
-9.06436e-06
-2.08363e-05
-3.32083e-05
-4.5859e-05
-5.83798e-05
-7.02921e-05
-8.10797e-05
-9.02352e-05
-9.73145e-05
-0.000101992
-0.000104107
-0.000103681
-0.000100919
-9.61727e-05
-8.98867e-05
-8.25424e-05
-7.46027e-05
-6.64742e-05
-5.8486e-05
-5.08833e-05
-4.38324e-05
-3.74311e-05
-3.17218e-05
-2.67056e-05
-2.23539e-05
-1.86194e-05
-1.54441e-05
-1.27657e-05
-1.05216e-05
-8.65233e-06
-7.10279e-06
-5.8236e-06
-4.77116e-06
-3.90765e-06
-3.20066e-06
-2.6227e-06
-2.15073e-06
-1.76556e-06
-1.45134e-06
-1.19501e-06
-9.8591e-07
-8.15308e-07
-6.76114e-07
-5.62577e-07
-4.70027e-07
-3.9466e-07
-3.33342e-07
-2.83454e-07
-2.42781e-07
-2.09427e-07
-1.81772e-07
-1.58434e-07
-1.38242e-07
-1.20215e-07
-1.03532e-07
-8.75067e-08
-7.15757e-08
-5.53467e-08
-3.82598e-08
-2.42009e-08
6.77208e-05
6.76164e-05
6.73511e-05
6.69253e-05
6.63323e-05
6.55484e-05
6.45402e-05
6.32676e-05
6.16823e-05
5.97272e-05
5.73353e-05
5.44306e-05
5.09281e-05
4.67363e-05
4.17596e-05
3.59035e-05
2.90816e-05
2.12246e-05
1.2293e-05
2.29112e-06
-8.71717e-06
-2.05924e-05
-3.31065e-05
-4.59357e-05
-5.86631e-05
-7.07961e-05
-8.17989e-05
-9.11408e-05
-9.83552e-05
-0.000103099
-0.000105202
-0.00010469
-0.000101781
-9.68477e-05
-9.03591e-05
-8.28181e-05
-7.47037e-05
-6.6432e-05
-5.83351e-05
-5.06571e-05
-4.35603e-05
-3.71372e-05
-3.14248e-05
-2.64186e-05
-2.20858e-05
-1.83753e-05
-1.52265e-05
-1.25748e-05
-1.03566e-05
-8.51119e-06
-6.98332e-06
-5.72332e-06
-4.68761e-06
-3.83848e-06
-3.1437e-06
-2.57603e-06
-2.11265e-06
-1.73462e-06
-1.42629e-06
-1.17482e-06
-9.69692e-07
-8.02326e-07
-6.65752e-07
-5.54322e-07
-4.63455e-07
-3.89425e-07
-3.29158e-07
-2.80087e-07
-2.40034e-07
-2.07137e-07
-1.79805e-07
-1.56685e-07
-1.36639e-07
-1.18714e-07
-1.02116e-07
-8.61875e-08
-7.03824e-08
-5.43176e-08
-3.74361e-08
-2.35657e-08
6.78102e-05
6.77088e-05
6.74511e-05
6.70373e-05
6.64606e-05
6.56978e-05
6.47158e-05
6.34748e-05
6.19269e-05
6.00151e-05
5.76723e-05
5.48216e-05
5.1377e-05
4.72447e-05
4.23259e-05
3.65214e-05
2.97385e-05
2.19005e-05
1.29588e-05
2.9079e-06
-8.19741e-06
-2.02248e-05
-3.29493e-05
-4.60435e-05
-5.9079e-05
-7.15419e-05
-8.28668e-05
-9.24885e-05
-9.9906e-05
-0.000104749
-0.000106835
-0.000106193
-0.000103062
-9.78478e-05
-9.10556e-05
-8.3221e-05
-7.4847e-05
-6.6363e-05
-5.81058e-05
-5.03174e-05
-4.3154e-05
-3.66998e-05
-3.09837e-05
-2.59933e-05
-2.1689e-05
-1.80145e-05
-1.4905e-05
-1.22931e-05
-1.01131e-05
-8.30317e-06
-6.80732e-06
-5.57567e-06
-4.56465e-06
-3.73674e-06
-3.05999e-06
-2.50749e-06
-2.05679e-06
-1.68929e-06
-1.38967e-06
-1.14538e-06
-9.4615e-07
-7.83601e-07
-6.50942e-07
-5.42679e-07
-4.54366e-07
-3.82386e-07
-3.23756e-07
-2.75978e-07
-2.36929e-07
-2.04794e-07
-1.78023e-07
-1.55308e-07
-1.3555e-07
-1.17841e-07
-1.01429e-07
-8.56899e-08
-7.01057e-08
-5.43022e-08
-3.76921e-08
-2.39716e-08
6.79261e-05
6.78285e-05
6.75807e-05
6.71824e-05
6.6627e-05
6.58915e-05
6.49435e-05
6.37436e-05
6.22445e-05
6.03891e-05
5.81102e-05
5.53303e-05
5.19616e-05
4.79076e-05
4.30652e-05
3.73293e-05
3.05992e-05
2.2788e-05
1.38352e-05
3.7227e-06
-7.50729e-06
-1.97323e-05
-3.27317e-05
-4.61742e-05
-5.96161e-05
-7.2516e-05
-8.42693e-05
-9.42638e-05
-0.000101952
-0.000106928
-0.00010899
-0.000108173
-0.000104746
-9.91569e-05
-9.19616e-05
-8.37388e-05
-7.50231e-05
-6.62614e-05
-5.77959e-05
-4.9865e-05
-4.26165e-05
-3.61239e-05
-3.04046e-05
-2.54362e-05
-2.11704e-05
-1.75437e-05
-1.44861e-05
-1.19265e-05
-9.79643e-06
-8.03283e-06
-6.57874e-06
-5.384e-06
-4.40509e-06
-3.60473e-06
-2.95135e-06
-2.41851e-06
-1.98422e-06
-1.63033e-06
-1.34195e-06
-1.10691e-06
-9.15238e-07
-7.58844e-07
-6.31165e-07
-5.26908e-07
-4.41803e-07
-3.72379e-07
-3.15768e-07
-2.69565e-07
-2.31716e-07
-2.00466e-07
-1.74322e-07
-1.52031e-07
-1.32553e-07
-1.15036e-07
-9.87799e-08
-8.32085e-08
-6.78396e-08
-5.23219e-08
-3.60888e-08
-2.28783e-08
6.80655e-05
6.79726e-05
6.77366e-05
6.73571e-05
6.68274e-05
6.61249e-05
6.5218e-05
6.4068e-05
6.26278e-05
6.08409e-05
5.86399e-05
5.59462e-05
5.26702e-05
4.87122e-05
4.39641e-05
3.83136e-05
3.16501e-05
2.38746e-05
1.4912e-05
4.72809e-06
-6.65042e-06
-1.91138e-05
-3.24477e-05
-4.63169e-05
-6.02598e-05
-7.37009e-05
-8.59866e-05
-9.64463e-05
-0.000104474
-0.000109615
-0.000111646
-0.00011061
-0.000106811
-0.000100754
-9.3058e-05
-8.43557e-05
-7.52205e-05
-6.61204e-05
-5.74028e-05
-4.93012e-05
-4.19523e-05
-3.5416e-05
-2.96957e-05
-2.47563e-05
-2.05389e-05
-1.69716e-05
-1.39779e-05
-1.14822e-05
-9.41327e-06
-7.70605e-06
-6.3027e-06
-5.15274e-06
-4.21274e-06
-3.44574e-06
-2.82068e-06
-2.31163e-06
-1.89719e-06
-1.55979e-06
-1.28506e-06
-1.06124e-06
-8.78777e-07
-7.29896e-07
-6.08316e-07
-5.08993e-07
-4.27866e-07
-3.61641e-07
-3.0759e-07
-2.63412e-07
-2.27138e-07
-1.97081e-07
-1.71813e-07
-1.50147e-07
-1.31113e-07
-1.13924e-07
-9.79418e-08
-8.26418e-08
-6.75802e-08
-5.24203e-08
-3.65575e-08
-2.35878e-08
6.8225e-05
6.81376e-05
6.79152e-05
6.75573e-05
6.7057e-05
6.63925e-05
6.55329e-05
6.44402e-05
6.30682e-05
6.13605e-05
5.92495e-05
5.66559e-05
5.3488e-05
4.96425e-05
4.50054e-05
3.94563e-05
3.28735e-05
2.51437e-05
1.61746e-05
5.913e-06
-5.6332e-06
-1.83701e-05
-3.20919e-05
-4.64599e-05
-6.09922e-05
-7.50738e-05
-8.79931e-05
-9.90084e-05
-0.000107442
-0.000112782
-0.000114775
-0.000113474
-0.000109228
-0.000102612
-9.43206e-05
-8.50521e-05
-7.54257e-05
-6.59323e-05
-5.69247e-05
-4.86291e-05
-4.11682e-05
-3.45855e-05
-2.88678e-05
-2.39652e-05
-1.98062e-05
-1.63092e-05
-1.33906e-05
-1.09697e-05
-8.97187e-06
-7.33001e-06
-5.98532e-06
-4.88701e-06
-3.99179e-06
-3.26313e-06
-2.67052e-06
-2.1887e-06
-1.79695e-06
-1.47835e-06
-1.21911e-06
-1.00802e-06
-8.35955e-07
-6.95513e-07
-5.80746e-07
-4.86899e-07
-4.10159e-07
-3.47438e-07
-2.9617e-07
-2.54177e-07
-2.19582e-07
-1.90779e-07
-1.66416e-07
-1.45381e-07
-1.26784e-07
-1.09916e-07
-9.42066e-08
-7.91902e-08
-6.44666e-08
-4.97269e-08
-3.43979e-08
-2.21442e-08
6.84008e-05
6.83193e-05
6.8112e-05
6.77779e-05
6.73102e-05
6.66878e-05
6.58807e-05
6.48517e-05
6.35554e-05
6.19359e-05
5.99255e-05
5.7444e-05
5.43976e-05
5.0679e-05
4.61683e-05
4.07358e-05
3.42476e-05
2.65742e-05
1.76041e-05
7.26235e-06
-4.46544e-06
-1.75043e-05
-3.16595e-05
-4.659e-05
-6.17924e-05
-7.66072e-05
-9.02558e-05
-0.000101914
-0.000110818
-0.000116388
-0.000118336
-0.000116726
-0.00011196
-0.000104697
-9.57207e-05
-8.58064e-05
-7.56243e-05
-6.56906e-05
-5.63617e-05
-4.78542e-05
-4.02739e-05
-3.36447e-05
-2.79347e-05
-2.30771e-05
-1.89863e-05
-1.55701e-05
-1.27368e-05
-1.04003e-05
-8.48222e-06
-6.9135e-06
-5.63428e-06
-4.59351e-06
-3.7481e-06
-3.06205e-06
-2.5055e-06
-2.05393e-06
-1.6874e-06
-1.38971e-06
-1.14774e-06
-9.50857e-07
-7.90415e-07
-6.59437e-07
-5.52338e-07
-4.6468e-07
-3.92931e-07
-3.3423e-07
-2.86187e-07
-2.46756e-07
-2.14159e-07
-1.86874e-07
-1.63625e-07
-1.43386e-07
-1.2535e-07
-1.0889e-07
-9.35112e-08
-7.88071e-08
-6.44192e-08
-5.00536e-08
-3.50947e-08
-2.30547e-08
6.85885e-05
6.85134e-05
6.83221e-05
6.80137e-05
6.7581e-05
6.70038e-05
6.6253e-05
6.52927e-05
6.4078e-05
6.25537e-05
6.06523e-05
5.82926e-05
5.53788e-05
5.17995e-05
4.74284e-05
4.21263e-05
3.57459e-05
2.81403e-05
1.91767e-05
8.7559e-06
-3.16162e-06
-1.65231e-05
-3.11481e-05
-4.66946e-05
-6.26373e-05
-7.82684e-05
-9.27343e-05
-0.000105116
-0.000114553
-0.000120384
-0.00012228
-0.000120317
-0.000114961
-0.000106968
-9.72255e-05
-8.65946e-05
-7.58023e-05
-6.53901e-05
-5.57164e-05
-4.69852e-05
-3.92822e-05
-3.26094e-05
-2.69135e-05
-2.21092e-05
-1.80959e-05
-1.47697e-05
-1.20305e-05
-9.78627e-06
-7.95505e-06
-6.46559e-06
-5.25708e-06
-4.27828e-06
-3.4864e-06
-2.846e-06
-2.32798e-06
-1.90867e-06
-1.56895e-06
-1.29343e-06
-1.06974e-06
-8.87826e-07
-7.39589e-07
-6.18498e-07
-5.19364e-07
-4.38106e-07
-3.71496e-07
-3.16922e-07
-2.72187e-07
-2.35386e-07
-2.04845e-07
-1.79129e-07
-1.57046e-07
-1.37657e-07
-1.20246e-07
-1.04272e-07
-8.93167e-08
-7.50354e-08
-6.11124e-08
-4.72792e-08
-3.29479e-08
-2.16796e-08
6.87834e-05
6.8715e-05
6.85406e-05
6.82588e-05
6.78627e-05
6.73327e-05
6.66409e-05
6.57524e-05
6.46234e-05
6.31994e-05
6.14129e-05
5.91821e-05
5.64092e-05
5.29788e-05
4.87581e-05
4.3598e-05
3.73372e-05
2.98107e-05
2.08627e-05
1.03677e-05
-1.74176e-06
-1.54383e-05
-3.05585e-05
-4.67622e-05
-6.35024e-05
-8.002e-05
-9.53801e-05
-0.000108559
-0.000118585
-0.000124705
-0.000126542
-0.000124186
-0.000118176
-0.000109379
-9.87985e-05
-8.73922e-05
-7.59467e-05
-6.50285e-05
-5.49953e-05
-4.60349e-05
-3.82104e-05
-3.14991e-05
-2.58247e-05
-2.10821e-05
-1.71545e-05
-1.39261e-05
-1.12881e-05
-9.1424e-06
-7.40342e-06
-5.99785e-06
-4.86396e-06
-3.95043e-06
-3.21483e-06
-2.62241e-06
-2.14487e-06
-1.75943e-06
-1.44788e-06
-1.1957e-06
-9.91245e-07
-8.25136e-07
-6.89797e-07
-5.79171e-07
-4.88486e-07
-4.14032e-07
-3.52901e-07
-3.02743e-07
-2.61559e-07
-2.27581e-07
-1.99243e-07
-1.75192e-07
-1.54324e-07
-1.3579e-07
-1.18966e-07
-1.03401e-07
-8.87564e-08
-7.47461e-08
-6.10951e-08
-4.75495e-08
-3.34908e-08
-2.23845e-08
6.89808e-05
6.89191e-05
6.87618e-05
6.85072e-05
6.81483e-05
6.76664e-05
6.70348e-05
6.62198e-05
6.51785e-05
6.38572e-05
6.21889e-05
6.00913e-05
5.74644e-05
5.41893e-05
5.01266e-05
4.51173e-05
3.89861e-05
3.15491e-05
2.26267e-05
1.20653e-05
-2.32366e-07
-1.42673e-05
-2.98964e-05
-4.67839e-05
-6.43624e-05
-8.18204e-05
-9.81363e-05
-0.000112173
-0.000122835
-0.000129268
-0.00013104
-0.000128256
-0.000121538
-0.000111875
-0.0001004
-8.8175e-05
-7.60474e-05
-6.46076e-05
-5.42091e-05
-4.50207e-05
-3.70797e-05
-3.03371e-05
-2.4692e-05
-2.00184e-05
-1.61833e-05
-1.30585e-05
-1.05263e-05
-8.48305e-06
-6.83937e-06
-5.52004e-06
-4.46259e-06
-3.61568e-06
-2.93737e-06
-2.39363e-06
-1.95705e-06
-1.6058e-06
-1.32261e-06
-1.09385e-06
-9.08662e-07
-7.5833e-07
-6.35833e-07
-5.35593e-07
-4.53273e-07
-3.85551e-07
-3.29855e-07
-2.84103e-07
-2.46492e-07
-2.15395e-07
-1.89342e-07
-1.67069e-07
-1.47554e-07
-1.30042e-07
-1.14003e-07
-9.90765e-08
-8.49987e-08
-7.15405e-08
-5.84621e-08
-4.55256e-08
-3.21176e-08
-2.16785e-08
6.91756e-05
6.91206e-05
6.89803e-05
6.87527e-05
6.84307e-05
6.79967e-05
6.7425e-05
6.66831e-05
6.57294e-05
6.4511e-05
6.29613e-05
6.09976e-05
5.85185e-05
5.54013e-05
5.15004e-05
4.66474e-05
4.06529e-05
3.3314e-05
2.44272e-05
1.38099e-05
1.33315e-06
-1.30345e-05
-2.91732e-05
-4.67545e-05
-6.51928e-05
-8.36245e-05
-0.000100938
-0.000115876
-0.000127211
-0.000133975
-0.000135678
-0.00013244
-0.000124972
-0.000114398
-0.00010199
-8.89202e-05
-7.60978e-05
-6.41339e-05
-5.33742e-05
-4.39652e-05
-3.59165e-05
-2.91511e-05
-2.35428e-05
-1.89444e-05
-1.52066e-05
-1.21889e-05
-9.76523e-06
-7.8261e-06
-6.27883e-06
-5.04641e-06
-4.06578e-06
-3.28572e-06
-2.66481e-06
-2.1698e-06
-1.77418e-06
-1.45711e-06
-1.20228e-06
-9.96964e-07
-8.31076e-07
-6.96547e-07
-5.86902e-07
-4.97044e-07
-4.23068e-07
-3.62046e-07
-3.11743e-07
-2.70341e-07
-2.36225e-07
-2.07896e-07
-1.83978e-07
-1.63286e-07
-1.44888e-07
-1.28124e-07
-1.12565e-07
-9.79447e-08
-8.40753e-08
-7.0783e-08
-5.78611e-08
-4.50845e-08
-3.1839e-08
-2.15928e-08
6.9363e-05
6.93145e-05
6.91906e-05
6.89891e-05
6.87029e-05
6.83152e-05
6.78016e-05
6.71307e-05
6.62622e-05
6.51441e-05
6.37104e-05
6.18782e-05
5.95446e-05
5.65838e-05
5.28444e-05
4.81488e-05
4.22945e-05
3.506e-05
2.62177e-05
1.55563e-05
2.91436e-06
-1.17715e-05
-2.84069e-05
-4.66739e-05
-6.59713e-05
-8.53853e-05
-0.000103714
-0.000119576
-0.000131605
-0.000138712
-0.000140343
-0.000136634
-0.000128391
-0.000116882
-0.000103527
-8.96081e-05
-7.60963e-05
-6.36196e-05
-5.25122e-05
-4.28959e-05
-3.47509e-05
-2.79716e-05
-2.24064e-05
-1.78872e-05
-1.42487e-05
-1.13385e-05
-9.0225e-06
-7.18604e-06
-5.73328e-06
-4.58569e-06
-3.67975e-06
-2.96445e-06
-2.39899e-06
-1.95092e-06
-1.59466e-06
-1.31034e-06
-1.08265e-06
-8.9972e-07
-7.52252e-07
-6.32798e-07
-5.35409e-07
-4.55456e-07
-3.89466e-07
-3.34901e-07
-2.89859e-07
-2.52773e-07
-2.22204e-07
-1.96765e-07
-1.75157e-07
-1.56269e-07
-1.39255e-07
-1.23549e-07
-1.08826e-07
-9.49106e-08
-8.16876e-08
-6.90305e-08
-5.67538e-08
-4.46293e-08
-3.20007e-08
-2.21676e-08
6.95383e-05
6.94959e-05
6.93874e-05
6.92105e-05
6.89579e-05
6.86139e-05
6.8155e-05
6.75513e-05
6.67634e-05
6.57404e-05
6.44169e-05
6.271e-05
6.05157e-05
5.77053e-05
5.41224e-05
4.95809e-05
4.38657e-05
3.67379e-05
2.79472e-05
1.72538e-05
4.46449e-06
-1.05167e-05
-2.76225e-05
-4.65474e-05
-6.66787e-05
-8.70552e-05
-0.000106387
-0.000123169
-0.000135892
-0.000143345
-0.000144904
-0.000140721
-0.000131702
-0.000119262
-0.000104972
-9.02232e-05
-7.6047e-05
-6.30829e-05
-5.16507e-05
-4.18454e-05
-3.36176e-05
-2.68332e-05
-2.13159e-05
-1.68774e-05
-1.33373e-05
-1.05322e-05
-8.3206e-06
-6.583e-06
-5.22082e-06
-4.15425e-06
-3.31947e-06
-2.66578e-06
-2.15299e-06
-1.74943e-06
-1.43045e-06
-1.17712e-06
-9.75069e-07
-8.13304e-07
-6.83223e-07
-5.77962e-07
-4.92063e-07
-4.21335e-07
-3.62718e-07
-3.14054e-07
-2.73758e-07
-2.40503e-07
-2.13004e-07
-1.89969e-07
-1.70168e-07
-1.5256e-07
-1.36382e-07
-1.21174e-07
-1.06718e-07
-9.29365e-08
-7.97893e-08
-6.71948e-08
-5.4988e-08
-4.29468e-08
-3.04459e-08
-2.09483e-08
6.9697e-05
6.96602e-05
6.95658e-05
6.94111e-05
6.91893e-05
6.8885e-05
6.84762e-05
6.79339e-05
6.72198e-05
6.6284e-05
6.50619e-05
6.34706e-05
6.14053e-05
5.87349e-05
5.52984e-05
5.09023e-05
4.53203e-05
3.82974e-05
2.95621e-05
1.88482e-05
5.93184e-06
-9.31461e-06
-2.6851e-05
-4.63867e-05
-6.73002e-05
-8.85881e-05
-0.000108878
-0.000126544
-0.00013994
-0.000147729
-0.000149219
-0.000144577
-0.000134805
-0.000121469
-0.000106286
-9.07549e-05
-7.59593e-05
-6.25472e-05
-5.08212e-05
-4.08492e-05
-3.25527e-05
-2.57705e-05
-2.03028e-05
-1.5943e-05
-1.24964e-05
-9.79005e-06
-7.67565e-06
-6.02949e-06
-4.75068e-06
-3.75839e-06
-2.98865e-06
-2.39111e-06
-1.92619e-06
-1.56301e-06
-1.27776e-06
-1.05245e-06
-8.73579e-07
-7.30965e-07
-6.16654e-07
-5.24307e-07
-4.48901e-07
-3.86645e-07
-3.34861e-07
-2.91748e-07
-2.56014e-07
-2.26546e-07
-2.02191e-07
-1.81728e-07
-1.63977e-07
-1.47954e-07
-1.32975e-07
-1.1868e-07
-1.04958e-07
-9.1824e-08
-7.93048e-08
-6.73535e-08
-5.58086e-08
-4.44193e-08
-3.24579e-08
-2.30423e-08
6.98351e-05
6.98031e-05
6.9721e-05
6.9586e-05
6.93911e-05
6.91217e-05
6.87569e-05
6.82684e-05
6.76193e-05
6.67605e-05
6.5628e-05
6.41391e-05
6.21884e-05
5.9643e-05
5.63379e-05
5.20734e-05
4.66131e-05
3.96884e-05
3.10086e-05
2.02837e-05
7.26205e-06
-8.21345e-06
-2.61288e-05
-4.62087e-05
-6.78262e-05
-8.99415e-05
-0.000111108
-0.000129589
-0.000143609
-0.000151712
-0.000153139
-0.00014807
-0.0001376
-0.000123437
-0.000107437
-9.11981e-05
-7.58484e-05
-6.20407e-05
-5.00595e-05
-3.99461e-05
-3.15953e-05
-2.48207e-05
-1.94018e-05
-1.51153e-05
-1.17543e-05
-9.1373e-06
-7.11018e-06
-5.54572e-06
-4.3411e-06
-3.41472e-06
-2.70257e-06
-2.15465e-06
-1.73198e-06
-1.40434e-06
-1.14871e-06
-9.47935e-07
-7.89335e-07
-6.63423e-07
-5.62823e-07
-4.8164e-07
-4.15221e-07
-3.60123e-07
-3.1401e-07
-2.75403e-07
-2.43282e-07
-2.16722e-07
-1.94684e-07
-1.76005e-07
-1.59545e-07
-1.44368e-07
-1.29872e-07
-1.15794e-07
-1.02131e-07
-8.89896e-08
-7.64613e-08
-6.45306e-08
-5.30399e-08
-4.17331e-08
-2.993e-08
-2.09869e-08
6.9949e-05
6.9921e-05
6.98492e-05
6.97304e-05
6.95579e-05
6.93177e-05
6.89895e-05
6.85461e-05
6.79512e-05
6.71568e-05
6.60994e-05
6.46966e-05
6.28426e-05
6.04027e-05
5.72093e-05
5.30572e-05
4.77021e-05
4.08635e-05
3.22349e-05
2.15061e-05
8.40121e-06
-7.26249e-06
-2.54945e-05
-4.60341e-05
-6.82518e-05
-9.10781e-05
-0.000113003
-0.000132194
-0.00014676
-0.00015514
-0.000156513
-0.00015107
-0.000139989
-0.000125106
-0.000108399
-9.15522e-05
-7.57325e-05
-6.15932e-05
-4.94009e-05
-3.91732e-05
-3.0781e-05
-2.40167e-05
-1.86418e-05
-1.44191e-05
-1.11315e-05
-8.59025e-06
-6.63679e-06
-5.14095e-06
-3.99843e-06
-3.12705e-06
-2.46285e-06
-1.95619e-06
-1.56857e-06
-1.27038e-06
-1.03929e-06
-8.58838e-07
-7.17059e-07
-6.05071e-07
-5.15968e-07
-4.44211e-07
-3.8544e-07
-3.36491e-07
-2.95318e-07
-2.60715e-07
-2.31894e-07
-2.0809e-07
-1.88353e-07
-1.71559e-07
-1.5659e-07
-1.42551e-07
-1.28899e-07
-1.15463e-07
-1.02327e-07
-8.96806e-08
-7.76639e-08
-6.62801e-08
-5.53582e-08
-4.45949e-08
-3.31707e-08
-2.4003e-08
7.00357e-05
7.00109e-05
6.9947e-05
6.98408e-05
6.96856e-05
6.94678e-05
6.91679e-05
6.87593e-05
6.82065e-05
6.7462e-05
6.64629e-05
6.51271e-05
6.33483e-05
6.09911e-05
5.78852e-05
5.38217e-05
4.85501e-05
4.17808e-05
3.31948e-05
2.2466e-05
9.2995e-06
-6.50827e-06
-2.4986e-05
-4.58856e-05
-6.85766e-05
-9.19672e-05
-0.000114498
-0.000134259
-0.000149266
-0.000157871
-0.000159201
-0.000153456
-0.000141883
-0.00012642
-0.000109148
-9.18209e-05
-7.56323e-05
-6.12351e-05
-4.88805e-05
-3.85665e-05
-3.01449e-05
-2.33911e-05
-1.80525e-05
-1.38808e-05
-1.06513e-05
-8.16978e-06
-6.27401e-06
-4.83173e-06
-3.73751e-06
-2.90883e-06
-2.28179e-06
-1.80702e-06
-1.44645e-06
-1.17092e-06
-9.58619e-07
-7.93678e-07
-6.64685e-07
-5.63236e-07
-4.82785e-07
-4.18055e-07
-3.64899e-07
-3.20361e-07
-2.82621e-07
-2.50698e-07
-2.23993e-07
-2.01876e-07
-1.83469e-07
-1.67677e-07
-1.534e-07
-1.39771e-07
-1.26302e-07
-1.12894e-07
-9.97099e-08
-8.70042e-08
-7.49594e-08
-6.35909e-08
-5.27177e-08
-4.20219e-08
-3.07256e-08
-2.19686e-08
7.00931e-05
7.00704e-05
7.00118e-05
6.99141e-05
6.97706e-05
6.9568e-05
6.92873e-05
6.89023e-05
6.83781e-05
6.76674e-05
6.6708e-05
6.54178e-05
6.36904e-05
6.13896e-05
5.83438e-05
5.43412e-05
4.91272e-05
4.2406e-05
3.38503e-05
2.31227e-05
9.91512e-06
-5.99048e-06
-2.46365e-05
-4.57841e-05
-6.88029e-05
-9.25859e-05
-0.00011554
-0.0001357
-0.000151018
-0.000159782
-0.000161083
-0.000155125
-0.000143206
-0.000127337
-0.000109671
-9.20094e-05
-7.55662e-05
-6.09922e-05
-4.8527e-05
-3.81548e-05
-2.97138e-05
-2.29677e-05
-1.76541e-05
-1.35175e-05
-1.03276e-05
-7.88664e-06
-6.02994e-06
-4.62385e-06
-3.56221e-06
-2.76228e-06
-2.16022e-06
-1.7069e-06
-1.36449e-06
-1.10415e-06
-9.04459e-07
-7.49932e-07
-6.29558e-07
-5.3526e-07
-4.60731e-07
-4.00855e-07
-3.51614e-07
-3.10185e-07
-2.74898e-07
-2.44928e-07
-2.19816e-07
-1.99025e-07
-1.81726e-07
-1.6684e-07
-1.53272e-07
-1.4017e-07
-1.2708e-07
-1.13952e-07
-1.01007e-07
-8.85432e-08
-7.67704e-08
-6.57067e-08
-5.51521e-08
-4.47451e-08
-3.35914e-08
-2.44929e-08
7.01195e-05
7.00978e-05
7.00419e-05
6.99484e-05
6.98107e-05
6.96157e-05
6.93444e-05
6.89712e-05
6.84611e-05
6.77673e-05
6.68276e-05
6.55602e-05
6.38584e-05
6.15857e-05
5.85699e-05
5.45978e-05
4.94125e-05
4.27153e-05
3.41744e-05
2.34469e-05
1.02179e-05
-5.73813e-06
-2.44707e-05
-4.57459e-05
-6.89333e-05
-9.29187e-05
-0.000116091
-0.000136459
-0.000151938
-0.000160785
-0.000162071
-0.000156003
-0.000143905
-0.000127825
-0.000109956
-9.2123e-05
-7.55491e-05
-6.08845e-05
-4.83626e-05
-3.796e-05
-2.95085e-05
-2.27656e-05
-1.74639e-05
-1.33443e-05
-1.01737e-05
-7.75245e-06
-5.9148e-06
-4.52633e-06
-3.48052e-06
-2.69452e-06
-2.10455e-06
-1.66157e-06
-1.32787e-06
-1.07477e-06
-8.81012e-07
-7.31342e-07
-6.14945e-07
-5.23916e-07
-4.52062e-07
-3.94336e-07
-3.46768e-07
-3.06594e-07
-2.72218e-07
-2.42904e-07
-2.18268e-07
-1.97831e-07
-1.80788e-07
-1.66065e-07
-1.52565e-07
-1.39439e-07
-1.26252e-07
-1.12983e-07
-9.98876e-08
-8.72956e-08
-7.54337e-08
-6.43227e-08
-5.37523e-08
-4.33484e-08
-3.22359e-08
-2.33396e-08
7.01142e-05
7.00925e-05
7.00364e-05
6.99427e-05
6.98047e-05
6.96093e-05
6.93376e-05
6.89638e-05
6.84531e-05
6.77586e-05
6.68181e-05
6.55497e-05
6.38468e-05
6.1573e-05
5.85557e-05
5.45821e-05
4.93951e-05
4.26961e-05
3.41532e-05
2.34235e-05
1.01922e-05
-5.76636e-06
-2.45015e-05
-4.57795e-05
-6.89697e-05
-9.29578e-05
-0.000116133
-0.000136503
-0.000151984
-0.000160831
-0.000162118
-0.00015605
-0.00014395
-0.000127869
-0.000109999
-9.21642e-05
-7.55888e-05
-6.09222e-05
-4.8398e-05
-3.7993e-05
-2.95388e-05
-2.27933e-05
-1.74892e-05
-1.33672e-05
-1.01943e-05
-7.77102e-06
-5.93149e-06
-4.5413e-06
-3.49393e-06
-2.70655e-06
-2.11535e-06
-1.67129e-06
-1.33664e-06
-1.08269e-06
-8.88157e-07
-7.37798e-07
-6.20805e-07
-5.29271e-07
-4.56992e-07
-3.98898e-07
-3.50992e-07
-3.10491e-07
-2.75796e-07
-2.46174e-07
-2.21256e-07
-2.00566e-07
-1.83299e-07
-1.68369e-07
-1.54666e-07
-1.41332e-07
-1.2793e-07
-1.14449e-07
-1.01156e-07
-8.83947e-08
-7.64026e-08
-6.52025e-08
-5.45782e-08
-4.41411e-08
-3.29824e-08
-2.39617e-08
7.00772e-05
7.00543e-05
6.99953e-05
6.9897e-05
6.97526e-05
6.9549e-05
6.92669e-05
6.88803e-05
6.83542e-05
6.76414e-05
6.66795e-05
6.53864e-05
6.36558e-05
6.13513e-05
5.83015e-05
5.42944e-05
4.90753e-05
4.23486e-05
3.37869e-05
2.30528e-05
9.83823e-06
-6.0748e-06
-2.47286e-05
-4.58844e-05
-6.89114e-05
-9.27025e-05
-0.000115664
-0.000135832
-0.000151154
-0.000159921
-0.000161223
-0.000155263
-0.000143341
-0.000127468
-0.000109798
-9.21323e-05
-7.56843e-05
-6.11045e-05
-4.86326e-05
-3.8253e-05
-2.98043e-05
-2.30505e-05
-1.77295e-05
-1.35857e-05
-1.03891e-05
-7.94199e-06
-6.07963e-06
-4.66837e-06
-3.60204e-06
-2.79791e-06
-2.19213e-06
-1.73552e-06
-1.39017e-06
-1.12719e-06
-9.25095e-07
-7.68411e-07
-6.46145e-07
-5.50224e-07
-4.74308e-07
-4.13212e-07
-3.62841e-07
-3.20318e-07
-2.83959e-07
-2.5296e-07
-2.26891e-07
-2.05237e-07
-1.8716e-07
-1.71552e-07
-1.5728e-07
-1.43465e-07
-1.29651e-07
-1.15812e-07
-1.02207e-07
-8.91779e-08
-7.69632e-08
-6.55896e-08
-5.48429e-08
-4.4333e-08
-3.31427e-08
-2.41061e-08
7.00093e-05
6.99843e-05
6.99196e-05
6.98124e-05
6.96558e-05
6.94362e-05
6.91341e-05
6.87228e-05
6.81669e-05
6.74188e-05
6.64156e-05
6.5075e-05
6.32909e-05
6.09276e-05
5.7815e-05
5.37441e-05
4.84642e-05
4.16857e-05
3.30899e-05
2.23504e-05
9.17239e-06
-6.6476e-06
-2.51382e-05
-4.60511e-05
-6.87556e-05
-9.21595e-05
-0.000114703
-0.000134475
-0.00014949
-0.000158099
-0.000159431
-0.000153682
-0.000142104
-0.000126635
-0.000109358
-9.20233e-05
-7.58267e-05
-6.142e-05
-4.90544e-05
-3.87284e-05
-3.02942e-05
-2.35279e-05
-1.81769e-05
-1.39936e-05
-1.07531e-05
-8.26143e-06
-6.35634e-06
-4.90556e-06
-3.80364e-06
-2.96805e-06
-2.33489e-06
-1.85472e-06
-1.48934e-06
-1.20948e-06
-9.93269e-07
-8.24825e-07
-6.92766e-07
-5.88691e-07
-5.06e-07
-4.39306e-07
-3.84341e-07
-3.38062e-07
-2.98624e-07
-2.65071e-07
-2.36854e-07
-2.13371e-07
-1.9373e-07
-1.76791e-07
-1.61392e-07
-1.46624e-07
-1.31997e-07
-1.17449e-07
-1.03209e-07
-8.95981e-08
-7.68479e-08
-6.4988e-08
-5.38146e-08
-4.29563e-08
-3.15535e-08
-2.26641e-08
6.99122e-05
6.98839e-05
6.98112e-05
6.96909e-05
6.95165e-05
6.92737e-05
6.89424e-05
6.84954e-05
6.78962e-05
6.70968e-05
6.60336e-05
6.46243e-05
6.27628e-05
6.03146e-05
5.71119e-05
5.29494e-05
4.75829e-05
4.07318e-05
3.20896e-05
2.1346e-05
8.22537e-06
-7.45509e-06
-2.57047e-05
-4.62625e-05
-6.84985e-05
-9.13428e-05
-0.000113285
-0.00013249
-0.000147068
-0.000155454
-0.000156828
-0.000151381
-0.000140294
-0.000125402
-0.000108686
-9.18305e-05
-7.59999e-05
-6.18476e-05
-4.96402e-05
-3.93961e-05
-3.09869e-05
-2.42054e-05
-1.88138e-05
-1.4575e-05
-1.12723e-05
-8.71712e-06
-6.75083e-06
-5.24328e-06
-4.09011e-06
-3.20917e-06
-2.53648e-06
-2.02231e-06
-1.628e-06
-1.3238e-06
-1.08726e-06
-9.01931e-07
-7.55865e-07
-6.40182e-07
-5.47903e-07
-4.73351e-07
-4.12007e-07
-3.60592e-07
-3.1702e-07
-2.80117e-07
-2.49151e-07
-2.23395e-07
-2.0188e-07
-1.83421e-07
-1.66825e-07
-1.51141e-07
-1.35828e-07
-1.20762e-07
-1.06117e-07
-9.21725e-08
-7.91362e-08
-6.70334e-08
-5.56669e-08
-4.4671e-08
-3.31514e-08
-2.40066e-08
6.97882e-05
6.97558e-05
6.96725e-05
6.95356e-05
6.93382e-05
6.90657e-05
6.86969e-05
6.82038e-05
6.75492e-05
6.6684e-05
6.55442e-05
6.4047e-05
6.20869e-05
5.95309e-05
5.6214e-05
5.19364e-05
4.64618e-05
3.95213e-05
3.08243e-05
2.0081e-05
7.03949e-06
-8.45697e-06
-2.63943e-05
-4.64967e-05
-6.81369e-05
-9.02745e-05
-0.000111462
-0.000129961
-0.000143994
-0.000152105
-0.000153534
-0.00014846
-0.000137983
-0.00012381
-0.000107799
-9.15477e-05
-7.61844e-05
-6.23604e-05
-5.03605e-05
-4.02268e-05
-3.18548e-05
-2.50588e-05
-1.9619e-05
-1.53124e-05
-1.19326e-05
-9.29805e-06
-7.25481e-06
-5.6756e-06
-4.45757e-06
-3.51913e-06
-2.79625e-06
-2.23882e-06
-1.80768e-06
-1.47244e-06
-1.20996e-06
-1.00305e-06
-8.39046e-07
-7.08462e-07
-6.03836e-07
-5.19108e-07
-4.4944e-07
-3.91245e-07
-3.42138e-07
-3.00663e-07
-2.65862e-07
-2.36846e-07
-2.12557e-07
-1.91762e-07
-1.73231e-07
-1.55971e-07
-1.39375e-07
-1.23244e-07
-1.07677e-07
-9.28948e-08
-7.90701e-08
-6.62193e-08
-5.41573e-08
-4.25536e-08
-3.06185e-08
-2.16267e-08
6.96404e-05
6.9603e-05
6.95071e-05
6.93502e-05
6.91254e-05
6.88173e-05
6.84038e-05
6.78558e-05
6.71351e-05
6.61916e-05
6.49607e-05
6.33594e-05
6.12828e-05
5.85997e-05
5.51491e-05
5.07373e-05
4.51381e-05
3.80964e-05
2.93407e-05
1.86049e-05
5.66499e-06
-9.60623e-06
-2.71685e-05
-4.67307e-05
-6.76708e-05
-8.89845e-05
-0.000109299
-0.000126985
-0.000140397
-0.000148195
-0.000149687
-0.00014504
-0.000135259
-0.000121911
-0.000106715
-9.11705e-05
-7.63586e-05
-6.29273e-05
-5.11795e-05
-4.11836e-05
-3.28623e-05
-2.60549e-05
-2.05626e-05
-1.61791e-05
-1.27102e-05
-9.98306e-06
-7.84949e-06
-6.18577e-06
-4.89096e-06
-3.88426e-06
-3.10165e-06
-2.49268e-06
-2.0176e-06
-1.6453e-06
-1.35184e-06
-1.11917e-06
-9.33807e-07
-7.85544e-07
-6.66337e-07
-5.69668e-07
-4.90308e-07
-4.24303e-07
-3.68906e-07
-3.22332e-07
-2.83347e-07
-2.50874e-07
-2.2374e-07
-2.00651e-07
-1.80336e-07
-1.61743e-07
-1.44192e-07
-1.27389e-07
-1.11339e-07
-9.61868e-08
-8.20544e-08
-6.89379e-08
-5.66536e-08
-4.48764e-08
-3.27737e-08
-2.3407e-08
6.94722e-05
6.94292e-05
6.9319e-05
6.91394e-05
6.88834e-05
6.85348e-05
6.80705e-05
6.74603e-05
6.66647e-05
6.56327e-05
6.4299e-05
6.25805e-05
6.03731e-05
5.75481e-05
5.39488e-05
4.93893e-05
4.36542e-05
3.65049e-05
2.76907e-05
1.69722e-05
4.15615e-06
-1.08532e-05
-2.79882e-05
-4.69431e-05
-6.71042e-05
-8.75096e-05
-0.000106868
-0.000123672
-0.000136413
-0.000143876
-0.000145437
-0.00014125
-0.000132221
-0.000119768
-0.000105463
-9.06989e-05
-7.6504e-05
-6.35182e-05
-5.20613e-05
-4.22291e-05
-3.39733e-05
-2.71606e-05
-2.16153e-05
-1.71499e-05
-1.35843e-05
-1.07555e-05
-8.52197e-06
-6.7642e-06
-5.38364e-06
-4.30046e-06
-3.45082e-06
-2.78391e-06
-2.25934e-06
-1.84525e-06
-1.51678e-06
-1.25497e-06
-1.04541e-06
-8.77082e-07
-7.4129e-07
-6.30982e-07
-5.40477e-07
-4.65406e-07
-4.02619e-07
-3.49961e-07
-3.05895e-07
-2.69128e-07
-2.38357e-07
-2.1222e-07
-1.89394e-07
-1.68773e-07
-1.49596e-07
-1.31472e-07
-1.14309e-07
-9.81648e-08
-8.31102e-08
-6.91177e-08
-5.60088e-08
-4.34898e-08
-3.08239e-08
-2.14216e-08
6.92879e-05
6.92387e-05
6.91129e-05
6.89084e-05
6.86182e-05
6.82254e-05
6.77056e-05
6.70274e-05
6.61502e-05
6.5022e-05
6.35767e-05
6.17314e-05
5.9383e-05
5.64056e-05
5.26479e-05
4.79321e-05
4.20556e-05
3.47969e-05
2.59285e-05
1.52391e-05
2.56758e-06
-1.21494e-05
-2.8817e-05
-4.71167e-05
-6.64467e-05
-8.58919e-05
-0.000104249
-0.000120136
-0.000132183
-0.000139301
-0.000140935
-0.000137221
-0.000128968
-0.000117445
-0.000104075
-9.01377e-05
-7.66052e-05
-6.41045e-05
-5.297e-05
-4.33243e-05
-3.51487e-05
-2.83382e-05
-2.27423e-05
-1.81934e-05
-1.45266e-05
-1.15901e-05
-9.24965e-06
-7.39071e-06
-5.91741e-06
-4.75122e-06
-3.82859e-06
-3.09842e-06
-2.51972e-06
-2.0598e-06
-1.6929e-06
-1.39905e-06
-1.16291e-06
-9.72575e-07
-8.1863e-07
-6.9344e-07
-5.90827e-07
-5.05966e-07
-4.35276e-07
-3.76204e-07
-3.26883e-07
-2.85779e-07
-2.51438e-07
-2.22406e-07
-1.97302e-07
-1.74952e-07
-1.54509e-07
-1.35481e-07
-1.17668e-07
-1.0104e-07
-8.5603e-08
-7.12975e-08
-5.79373e-08
-4.52308e-08
-3.24112e-08
-2.27191e-08
6.90919e-05
6.90361e-05
6.88937e-05
6.86628e-05
6.83364e-05
6.78967e-05
6.73181e-05
6.6568e-05
6.56047e-05
6.43751e-05
6.28127e-05
6.08345e-05
5.8339e-05
5.52036e-05
5.12825e-05
4.64071e-05
4.03883e-05
3.30231e-05
2.41078e-05
1.346e-05
9.5114e-07
-1.34501e-05
-2.96234e-05
-4.72398e-05
-6.57128e-05
-8.41776e-05
-0.000101521
-0.000116485
-0.000127839
-0.000134615
-0.000136321
-0.000133079
-0.0001256
-0.000115011
-0.000102587
-8.94975e-05
-7.66527e-05
-6.46628e-05
-5.38741e-05
-4.44336e-05
-3.6352e-05
-2.95531e-05
-2.39117e-05
-1.92812e-05
-1.55129e-05
-1.24665e-05
-1.00161e-05
-8.05244e-06
-6.48268e-06
-5.22986e-06
-4.23088e-06
-3.43442e-06
-2.79889e-06
-2.2908e-06
-1.88346e-06
-1.55589e-06
-1.29174e-06
-1.07821e-06
-9.05121e-07
-7.64199e-07
-6.48737e-07
-5.53432e-07
-4.74252e-07