# Force       
# CofR        : (0.000000e+00 0.000000e+00 0.000000e+00)
#
# Time        	total_x total_y total_z	pressure_x pressure_y pressure_z	viscous_x viscous_y viscous_z
1              1.229235e-01 -2.173448e-04 -6.392399e-04 9.806560e-02 -2.168620e-04 -6.379880e-04 2.485786e-02 -4.827874e-07 -1.251870e-06
2              1.293738e-01 -2.644716e-04 -4.764680e-04 1.066760e-01 -2.653919e-04 -4.853155e-04 2.269781e-02 9.202722e-07 8.847468e-06
3              1.113150e-01 -2.194179e-04 -5.559281e-04 9.004825e-02 -2.213342e-04 -5.702842e-04 2.126675e-02 1.916309e-06 1.435611e-05
4              7.992216e-02 -1.208487e-04 -5.323262e-04 5.969203e-02 -1.229462e-04 -5.472161e-04 2.023014e-02 2.097509e-06 1.488985e-05
5              4.740925e-02 -5.152205e-05 -4.398274e-04 2.795623e-02 -5.305137e-05 -4.511181e-04 1.945302e-02 1.529321e-06 1.129074e-05
6              2.047901e-02 -1.006010e-05 -2.711859e-04 1.610812e-03 -1.063196e-05 -2.772214e-04 1.886820e-02 5.718585e-07 6.035543e-06
7              2.808172e-03 1.664938e-05 -4.202583e-05 -1.559961e-02 1.677297e-05 -4.313380e-05 1.840778e-02 -1.235842e-07 1.107973e-06
8              -4.840121e-03 2.759112e-05 1.960049e-04 -2.286919e-02 2.819306e-05 1.982668e-04 1.802907e-02 -6.019406e-07 -2.261915e-06
9              -4.059144e-03 4.624182e-05 3.589895e-04 -2.175399e-02 4.708706e-05 3.624411e-04 1.769484e-02 -8.452344e-07 -3.451521e-06
10             1.419926e-03 3.383167e-05 5.032516e-04 -1.596016e-02 3.472320e-05 5.060855e-04 1.738009e-02 -8.915252e-07 -2.833902e-06
11             9.792847e-03 1.356936e-06 4.728998e-04 -7.282780e-03 2.246117e-06 4.741592e-04 1.707563e-02 -8.891805e-07 -1.259395e-06
12             1.777829e-02 -2.915863e-05 3.289326e-04 9.989411e-04 -2.833890e-05 3.285153e-04 1.677934e-02 -8.197298e-07 4.172862e-07
13             2.369880e-02 -5.176655e-05 1.197006e-04 7.204881e-03 -5.099782e-05 1.179205e-04 1.649392e-02 -7.687306e-07 1.780172e-06
14             2.692141e-02 -6.276781e-05 -9.013015e-05 1.069768e-02 -6.204100e-05 -9.269650e-05 1.622372e-02 -7.268061e-07 2.566346e-06
15             2.748695e-02 -7.123213e-05 -2.231045e-04 1.151497e-02 -7.055006e-05 -2.259697e-04 1.597199e-02 -6.820678e-07 2.865268e-06
16             2.652344e-02 -6.403842e-05 -3.170818e-04 1.078169e-02 -6.344478e-05 -3.198321e-04 1.574175e-02 -5.936415e-07 2.750300e-06
17             2.443051e-02 -3.754464e-05 -3.134973e-04 8.898047e-03 -3.710048e-05 -3.159706e-04 1.553247e-02 -4.441570e-07 2.473258e-06
18             2.204110e-02 -1.059003e-05 -2.347505e-04 6.698961e-03 -1.033021e-05 -2.369792e-04 1.534214e-02 -2.598238e-07 2.228725e-06
19             1.989490e-02 1.015667e-05 -1.150112e-04 4.726734e-03 1.023123e-05 -1.171574e-04 1.516817e-02 -7.456852e-08 2.146154e-06
20             1.829503e-02 2.117487e-05 6.879752e-06 3.287602e-03 2.109751e-05 4.638163e-06 1.500743e-02 7.735265e-08 2.241589e-06
21             1.739835e-02 2.775603e-05 8.928896e-05 2.541310e-03 2.757738e-05 8.686390e-05 1.485704e-02 1.786528e-07 2.425060e-06
22             1.698099e-02 2.509087e-05 1.426052e-04 2.267024e-03 2.488762e-05 1.399665e-04 1.471396e-02 2.032448e-07 2.638671e-06
23             1.689896e-02 1.373258e-05 1.594309e-04 2.323387e-03 1.359391e-05 1.566164e-04 1.457557e-02 1.386759e-07 2.814507e-06
24             1.701785e-02 -2.461197e-06 1.385589e-04 2.577775e-03 -2.461348e-06 1.356684e-04 1.444008e-02 1.506960e-10 2.890484e-06
25             1.725360e-02 -2.043848e-05 7.174666e-05 2.946735e-03 -2.025941e-05 6.895306e-05 1.430686e-02 -1.790642e-07 2.793596e-06
26             1.745734e-02 -3.030498e-05 2.524954e-06 3.282163e-03 -2.995136e-05 -4.460265e-08 1.417517e-02 -3.536213e-07 2.569557e-06
27             1.756546e-02 -3.129936e-05 -5.142387e-05 3.520010e-03 -3.080545e-05 -5.370454e-05 1.404545e-02 -4.939134e-07 2.280673e-06
28             1.754042e-02 -2.851188e-05 -8.055510e-05 3.622521e-03 -2.792028e-05 -8.255187e-05 1.391790e-02 -5.916032e-07 1.996772e-06
29             1.742830e-02 -2.007162e-05 -8.958204e-05 3.635644e-03 -1.943206e-05 -9.134556e-05 1.379266e-02 -6.395603e-07 1.763520e-06
30             1.724738e-02 -8.714494e-06 -7.750369e-05 3.577057e-03 -8.072552e-06 -7.912079e-05 1.367032e-02 -6.419420e-07 1.617102e-06
31             1.702317e-02 1.989353e-06 -4.947811e-05 3.472116e-03 2.606123e-06 -5.104820e-05 1.355105e-02 -6.167698e-07 1.570096e-06
32             1.676936e-02 9.246773e-06 -4.391100e-06 3.334624e-03 9.836250e-06 -6.027806e-06 1.343474e-02 -5.894763e-07 1.636706e-06
33             1.652355e-02 1.160521e-05 3.136132e-05 3.202108e-03 1.218233e-05 2.960079e-05 1.332144e-02 -5.771247e-07 1.760533e-06
34             1.631367e-02 1.182139e-05 4.965720e-05 3.102786e-03 1.240556e-05 4.777349e-05 1.321088e-02 -5.841659e-07 1.883709e-06
35             1.612373e-02 9.092658e-06 5.680304e-05 3.020955e-03 9.706783e-06 5.482357e-05 1.310278e-02 -6.141244e-07 1.979470e-06
36             1.594671e-02 3.575650e-06 4.834590e-05 2.949966e-03 4.241384e-06 4.633097e-05 1.299675e-02 -6.657335e-07 2.014932e-06
37             1.580079e-02 6.069454e-07 3.741114e-05 2.908460e-03 1.330484e-06 3.540721e-05 1.289234e-02 -7.235385e-07 2.003926e-06
38             1.566990e-02 -9.670623e-07 2.271046e-05 2.880276e-03 -1.885410e-07 2.076178e-05 1.278963e-02 -7.785214e-07 1.948678e-06
39             1.554427e-02 -8.432017e-08 5.178150e-06 2.855995e-03 7.376263e-07 3.323253e-06 1.268828e-02 -8.219465e-07 1.854898e-06
40             1.542996e-02 1.161371e-06 -4.255129e-06 2.841796e-03 2.015058e-06 -6.010472e-06 1.258817e-02 -8.536865e-07 1.755343e-06
41             1.531299e-02 5.081942e-06 -8.487943e-06 2.823685e-03 5.950314e-06 -1.015339e-05 1.248930e-02 -8.683722e-07 1.665446e-06
42             1.520014e-02 7.499899e-06 -8.017693e-06 2.808374e-03 8.374986e-06 -9.612342e-06 1.239176e-02 -8.750870e-07 1.594650e-06
43             1.508506e-02 1.003564e-05 -3.003836e-06 2.789627e-03 1.091152e-05 -4.554529e-06 1.229543e-02 -8.758847e-07 1.550694e-06
44             1.496784e-02 1.217381e-05 5.132820e-06 2.767413e-03 1.304843e-05 3.597221e-06 1.220043e-02 -8.746195e-07 1.535599e-06
45             1.484954e-02 1.343416e-05 1.426467e-05 2.742759e-03 1.430974e-05 1.271977e-05 1.210678e-02 -8.755762e-07 1.544897e-06
46             1.473202e-02 1.362781e-05 2.199426e-05 2.717527e-03 1.451004e-05 2.042540e-05 1.201449e-02 -8.822326e-07 1.568863e-06
47             1.461689e-02 1.310184e-05 2.679767e-05 2.693341e-03 1.399723e-05 2.520121e-05 1.192355e-02 -8.953892e-07 1.596460e-06
48             1.450465e-02 1.233538e-05 2.852744e-05 2.670729e-03 1.324872e-05 2.690821e-05 1.183392e-02 -9.133407e-07 1.619227e-06
49             1.439526e-02 1.166176e-05 2.771803e-05 2.649674e-03 1.259509e-05 2.608589e-05 1.174559e-02 -9.333341e-07 1.632142e-06
50             1.428872e-02 1.131736e-05 2.519717e-05 2.630223e-03 1.226986e-05 2.356369e-05 1.165850e-02 -9.525022e-07 1.633478e-06
51             1.418503e-02 1.143117e-05 2.194448e-05 2.612423e-03 1.239964e-05 2.032011e-05 1.157261e-02 -9.684733e-07 1.624364e-06
52             1.408409e-02 1.201105e-05 1.887689e-05 2.596217e-03 1.299088e-05 1.726896e-05 1.148788e-02 -9.798295e-07 1.607923e-06
53             1.398568e-02 1.296953e-05 1.666322e-05 2.581418e-03 1.395571e-05 1.507508e-05 1.140426e-02 -9.861737e-07 1.588144e-06
54             1.388953e-02 1.415868e-05 1.567550e-05 2.567786e-03 1.514667e-05 1.410650e-05 1.132174e-02 -9.879892e-07 1.568997e-06
55             1.379546e-02 1.536989e-05 1.599663e-05 2.555163e-03 1.635635e-05 1.444285e-05 1.124030e-02 -9.864633e-07 1.553780e-06
56             1.370342e-02 1.636634e-05 1.738911e-05 2.543497e-03 1.734967e-05 1.584461e-05 1.115992e-02 -9.833289e-07 1.544491e-06
57             1.361328e-02 1.700595e-05 1.935393e-05 2.532689e-03 1.798626e-05 1.781252e-05 1.108059e-02 -9.803081e-07 1.541403e-06
58             1.352481e-02 1.729939e-05 2.136547e-05 2.522502e-03 1.827793e-05 1.982203e-05 1.100231e-02 -9.785402e-07 1.543447e-06
59             1.343770e-02 1.734614e-05 2.305297e-05 2.512640e-03 1.832456e-05 2.150403e-05 1.092506e-02 -9.784181e-07 1.548937e-06
60             1.335172e-02 1.726381e-05 2.422033e-05 2.502878e-03 1.824352e-05 2.266424e-05 1.084884e-02 -9.797060e-07 1.556089e-06
61             1.326676e-02 1.716054e-05 2.481796e-05 2.493117e-03 1.814232e-05 2.325461e-05 1.077364e-02 -9.817872e-07 1.563350e-06
62             1.318282e-02 1.712258e-05 2.491680e-05 2.483363e-03 1.810647e-05 2.334717e-05 1.069946e-02 -9.838898e-07 1.569629e-06
63             1.309995e-02 1.720503e-05 2.467029e-05 2.473676e-03 1.819030e-05 2.309587e-05 1.062628e-02 -9.852706e-07 1.574411e-06
64             1.301822e-02 1.742795e-05 2.426314e-05 2.464128e-03 1.841333e-05 2.268548e-05 1.055409e-02 -9.853820e-07 1.577660e-06
65             1.293767e-02 1.777811e-05 2.386789e-05 2.454786e-03 1.876206e-05 2.228814e-05 1.048289e-02 -9.839436e-07 1.579748e-06
66             1.285840e-02 1.821105e-05 2.361707e-05 2.445729e-03 1.919198e-05 2.203581e-05 1.041267e-02 -9.809283e-07 1.581259e-06
67             1.278046e-02 1.866149e-05 2.358363e-05 2.437041e-03 1.963807e-05 2.200077e-05 1.034342e-02 -9.765799e-07 1.582850e-06
68             1.270388e-02 1.906926e-05 2.376781e-05 2.428758e-03 2.004059e-05 2.218275e-05 1.027513e-02 -9.713280e-07 1.585060e-06
69             1.262862e-02 1.940092e-05 2.411233e-05 2.420836e-03 2.036652e-05 2.252413e-05 1.020778e-02 -9.656057e-07 1.588196e-06
70             1.255457e-02 1.965043e-05 2.453714e-05 2.413183e-03 2.061017e-05 2.294481e-05 1.014139e-02 -9.597328e-07 1.592333e-06
71             1.248163e-02 1.982810e-05 2.496690e-05 2.405708e-03 2.078200e-05 2.336956e-05 1.007592e-02 -9.539067e-07 1.597347e-06
72             1.240975e-02 1.995194e-05 2.534480e-05 2.398353e-03 2.090017e-05 2.374177e-05 1.001140e-02 -9.482296e-07 1.603023e-06
73             1.233891e-02 2.004405e-05 2.563889e-05 2.391098e-03 2.098674e-05 2.402979e-05 9.947809e-03 -9.426927e-07 1.609093e-06
74             1.226909e-02 2.012683e-05 2.584195e-05 2.383948e-03 2.106405e-05 2.422664e-05 9.885144e-03 -9.372122e-07 1.615308e-06
75             1.220032e-02 2.021919e-05 2.596689e-05 2.376920e-03 2.115085e-05 2.434538e-05 9.823397e-03 -9.316604e-07 1.621511e-06
76             1.213260e-02 2.033526e-05 2.603984e-05 2.370027e-03 2.126117e-05 2.441222e-05 9.762569e-03 -9.259128e-07 1.627616e-06
77             1.206594e-02 2.048059e-05 2.609096e-05 2.363282e-03 2.140044e-05 2.445732e-05 9.702654e-03 -9.198434e-07 1.633644e-06
78             1.200035e-02 2.065334e-05 2.614897e-05 2.356695e-03 2.156670e-05 2.450931e-05 9.643653e-03 -9.133610e-07 1.639664e-06
79             1.193583e-02 2.084522e-05 2.623461e-05 2.350270e-03 2.175164e-05 2.458880e-05 9.585562e-03 -9.064196e-07 1.645807e-06
80             1.187239e-02 2.104435e-05 2.635686e-05 2.344005e-03 2.194340e-05 2.470469e-05 9.528381e-03 -8.990557e-07 1.652170e-06
81             1.180999e-02 2.123889e-05 2.651308e-05 2.337880e-03 2.213025e-05 2.485427e-05 9.472107e-03 -8.913624e-07 1.658810e-06
82             1.174861e-02 2.142248e-05 2.669421e-05 2.331871e-03 2.230591e-05 2.502846e-05 9.416735e-03 -8.834293e-07 1.665744e-06
83             1.168821e-02 2.159030e-05 2.688392e-05 2.325952e-03 2.246565e-05 2.521098e-05 9.362262e-03 -8.753538e-07 1.672944e-06
84             1.162879e-02 2.174166e-05 2.706716e-05 2.320102e-03 2.260890e-05 2.538685e-05 9.308689e-03 -8.672351e-07 1.680311e-06
85             1.157032e-02 2.187680e-05 2.722978e-05 2.314311e-03 2.273596e-05 2.554205e-05 9.256008e-03 -8.591523e-07 1.687730e-06
86             1.151279e-02 2.199716e-05 2.736460e-05 2.308579e-03 2.284834e-05 2.566954e-05 9.204214e-03 -8.511762e-07 1.695054e-06
87             1.145621e-02 2.210747e-05 2.747292e-05 2.302912e-03 2.295083e-05 2.577075e-05 9.153298e-03 -8.433593e-07 1.702176e-06
88             1.140057e-02 2.220766e-05 2.755626e-05 2.297320e-03 2.304339e-05 2.584726e-05 9.103253e-03 -8.357311e-07 1.709006e-06
89             1.134589e-02 2.230170e-05 2.762277e-05 2.291817e-03 2.313001e-05 2.590724e-05 9.054070e-03 -8.283055e-07 1.715531e-06
90             1.129216e-02 2.238860e-05 2.767650e-05 2.286421e-03 2.320969e-05 2.595476e-05 9.005740e-03 -8.210954e-07 1.721739e-06
91             1.123940e-02 2.246329e-05 2.771806e-05 2.281146e-03 2.327745e-05 2.599046e-05 8.958256e-03 -8.141568e-07 1.727598e-06
92             1.118762e-02 2.252792e-05 2.775477e-05 2.276004e-03 2.333546e-05 2.602169e-05 8.911611e-03 -8.075382e-07 1.733076e-06
93             1.113680e-02 2.258763e-05 2.779440e-05 2.271000e-03 2.338887e-05 2.605618e-05 8.865800e-03 -8.012349e-07 1.738218e-06
94             1.108695e-02 2.264098e-05 2.783783e-05 2.266127e-03 2.343620e-05 2.609476e-05 8.820819e-03 -7.952164e-07 1.743069e-06
95             1.103804e-02 2.268430e-05 2.788087e-05 2.261380e-03 2.347380e-05 2.613322e-05 8.776665e-03 -7.894991e-07 1.747655e-06
96             1.099009e-02 2.271794e-05 2.792080e-05 2.256754e-03 2.350203e-05 2.616881e-05 8.733332e-03 -7.840978e-07 1.751986e-06
97             1.094307e-02 2.274260e-05 2.795421e-05 2.252248e-03 2.352161e-05 2.619815e-05 8.690819e-03 -7.790049e-07 1.756062e-06
98             1.089699e-02 2.275945e-05 2.797817e-05 2.247866e-03 2.353366e-05 2.621829e-05 8.649120e-03 -7.742120e-07 1.759883e-06
99             1.085185e-02 2.277036e-05 2.799204e-05 2.243614e-03 2.354007e-05 2.622861e-05 8.608235e-03 -7.697186e-07 1.763426e-06
100            1.080766e-02 2.277803e-05 2.799716e-05 2.239497e-03 2.354352e-05 2.623048e-05 8.568159e-03 -7.654873e-07 1.766683e-06
101            1.076440e-02 2.278457e-05 2.799553e-05 2.235517e-03 2.354605e-05 2.622586e-05 8.528886e-03 -7.614842e-07 1.769666e-06
102            1.072209e-02 2.279014e-05 2.798810e-05 2.231673e-03 2.354782e-05 2.621571e-05 8.490413e-03 -7.576757e-07 1.772392e-06
103            1.068070e-02 2.279341e-05 2.797518e-05 2.227964e-03 2.354746e-05 2.620031e-05 8.452735e-03 -7.540496e-07 1.774874e-06
104            1.064024e-02 2.279321e-05 2.795775e-05 2.224389e-03 2.354380e-05 2.618062e-05 8.415850e-03 -7.505947e-07 1.777126e-06
105            1.060070e-02 2.278888e-05 2.793702e-05 2.220948e-03 2.353618e-05 2.615785e-05 8.379751e-03 -7.472990e-07 1.779164e-06
106            1.056207e-02 2.277981e-05 2.791428e-05 2.217641e-03 2.352396e-05 2.613327e-05 8.344433e-03 -7.441574e-07 1.781013e-06
107            1.052435e-02 2.276608e-05 2.789012e-05 2.214466e-03 2.350724e-05 2.610743e-05 8.309888e-03 -7.411619e-07 1.782694e-06
108            1.048753e-02 2.274699e-05 2.786376e-05 2.211418e-03 2.348529e-05 2.607951e-05 8.276109e-03 -7.382984e-07 1.784246e-06
109            1.045158e-02 2.272328e-05 2.783586e-05 2.208491e-03 2.345883e-05 2.605016e-05 8.243089e-03 -7.355451e-07 1.785697e-06
110            1.041650e-02 2.269556e-05 2.780630e-05 2.205679e-03 2.342844e-05 2.601922e-05 8.210821e-03 -7.328797e-07 1.787080e-06
111            1.038227e-02 2.266443e-05 2.777468e-05 2.202978e-03 2.339471e-05 2.598626e-05 8.179296e-03 -7.302763e-07 1.788425e-06
112            1.034889e-02 2.262972e-05 2.773966e-05 2.200381e-03 2.335742e-05 2.594991e-05 8.148506e-03 -7.277052e-07 1.789751e-06
113            1.031633e-02 2.259131e-05 2.770002e-05 2.197886e-03 2.331646e-05 2.590895e-05 8.118444e-03 -7.251479e-07 1.791068e-06
114            1.028459e-02 2.254906e-05 2.765492e-05 2.195491e-03 2.327165e-05 2.586253e-05 8.089101e-03 -7.225892e-07 1.792382e-06
115            1.025366e-02 2.250316e-05 2.760428e-05 2.193192e-03 2.322318e-05 2.581058e-05 8.060467e-03 -7.200181e-07 1.793704e-06
116            1.022352e-02 2.245402e-05 2.754907e-05 2.190988e-03 2.317144e-05 2.575401e-05 8.032534e-03 -7.174113e-07 1.795052e-06
117            1.019417e-02 2.240216e-05 2.749049e-05 2.188876e-03 2.311690e-05 2.569404e-05 8.005292e-03 -7.147447e-07 1.796451e-06
118            1.016559e-02 2.234777e-05 2.742935e-05 2.186853e-03 2.305976e-05 2.563141e-05 7.978732e-03 -7.119915e-07 1.797933e-06
119            1.013776e-02 2.229069e-05 2.736594e-05 2.184916e-03 2.299981e-05 2.556642e-05 7.952844e-03 -7.091269e-07 1.799519e-06
120            1.011068e-02 2.223088e-05 2.730071e-05 2.183061e-03 2.293702e-05 2.549949e-05 7.927618e-03 -7.061357e-07 1.801228e-06
121            1.008433e-02 2.216833e-05 2.723410e-05 2.181287e-03 2.287133e-05 2.543102e-05 7.903043e-03 -7.030039e-07 1.803079e-06
122            1.005870e-02 2.210278e-05 2.716602e-05 2.179590e-03 2.280250e-05 2.536092e-05 7.879109e-03 -6.997193e-07 1.805091e-06
123            1.003377e-02 2.203390e-05 2.709625e-05 2.177968e-03 2.273017e-05 2.528898e-05 7.855805e-03 -6.962745e-07 1.807276e-06
124            1.000954e-02 2.196182e-05 2.702466e-05 2.176415e-03 2.265448e-05 2.521502e-05 7.833122e-03 -6.926618e-07 1.809648e-06
125            9.985978e-03 2.188688e-05 2.695121e-05 2.174930e-03 2.257575e-05 2.513900e-05 7.811048e-03 -6.888703e-07 1.812215e-06
126            9.963079e-03 2.180963e-05 2.687576e-05 2.173507e-03 2.249452e-05 2.506078e-05 7.789572e-03 -6.848899e-07 1.814986e-06
127            9.940827e-03 2.173042e-05 2.679827e-05 2.172144e-03 2.241114e-05 2.498031e-05 7.768683e-03 -6.807155e-07 1.817963e-06
128            9.919206e-03 2.164936e-05 2.671881e-05 2.170837e-03 2.232571e-05 2.489767e-05 7.748369e-03 -6.763455e-07 1.821143e-06
129            9.898203e-03 2.156672e-05 2.663758e-05 2.169584e-03 2.223851e-05 2.481306e-05 7.728619e-03 -6.717844e-07 1.824521e-06
130            9.877803e-03 2.148291e-05 2.655512e-05 2.168382e-03 2.214995e-05 2.472703e-05 7.709421e-03 -6.670337e-07 1.828093e-06
131            9.857993e-03 2.139823e-05 2.647195e-05 2.167229e-03 2.206033e-05 2.464009e-05 7.690764e-03 -6.620942e-07 1.831858e-06
132            9.838758e-03 2.131270e-05 2.638828e-05 2.166123e-03 2.196967e-05 2.455246e-05 7.672635e-03 -6.569697e-07 1.835814e-06
133            9.820085e-03 2.122618e-05 2.630419e-05 2.165062e-03 2.187784e-05 2.446423e-05 7.655024e-03 -6.516653e-07 1.839960e-06
134            9.801962e-03 2.113862e-05 2.621978e-05 2.164044e-03 2.178481e-05 2.437550e-05 7.637918e-03 -6.461900e-07 1.844288e-06
135            9.784374e-03 2.105022e-05 2.613521e-05 2.163068e-03 2.169077e-05 2.428641e-05 7.621306e-03 -6.405519e-07 1.848793e-06
136            9.767308e-03 2.096135e-05 2.605048e-05 2.162131e-03 2.159611e-05 2.419702e-05 7.605177e-03 -6.347554e-07 1.853466e-06
137            9.750752e-03 2.087222e-05 2.596564e-05 2.161233e-03 2.150102e-05 2.410734e-05 7.589519e-03 -6.288076e-07 1.858299e-06
138            9.734692e-03 2.078298e-05 2.588077e-05 2.160371e-03 2.140570e-05 2.401749e-05 7.574321e-03 -6.227186e-07 1.863279e-06
139            9.719115e-03 2.069389e-05 2.579605e-05 2.159544e-03 2.131039e-05 2.392765e-05 7.559571e-03 -6.164996e-07 1.868397e-06
140            9.704008e-03 2.060520e-05 2.571163e-05 2.158751e-03 2.121536e-05 2.383798e-05 7.545257e-03 -6.101601e-07 1.873643e-06
141            9.689357e-03 2.051703e-05 2.562756e-05 2.157989e-03 2.112074e-05 2.374856e-05 7.531368e-03 -6.037124e-07 1.879006e-06
142            9.675150e-03 2.042942e-05 2.554391e-05 2.157257e-03 2.102658e-05 2.365944e-05 7.517894e-03 -5.971669e-07 1.884474e-06
143            9.661375e-03 2.034229e-05 2.546078e-05 2.156553e-03 2.093282e-05 2.357074e-05 7.504823e-03 -5.905354e-07 1.890033e-06
144            9.648019e-03 2.025546e-05 2.537819e-05 2.155875e-03 2.083930e-05 2.348251e-05 7.492144e-03 -5.838325e-07 1.895673e-06
145            9.635070e-03 2.016885e-05 2.529615e-05 2.155224e-03 2.074592e-05 2.339477e-05 7.479846e-03 -5.770704e-07 1.901384e-06
146            9.622516e-03 2.008257e-05 2.521471e-05 2.154597e-03 2.065283e-05 2.330756e-05 7.467919e-03 -5.702620e-07 1.907156e-06
147            9.610346e-03 1.999676e-05 2.513399e-05 2.153993e-03 2.056018e-05 2.322101e-05 7.456353e-03 -5.634167e-07 1.912978e-06
148            9.598549e-03 1.991161e-05 2.505409e-05 2.153412e-03 2.046815e-05 2.313524e-05 7.445137e-03 -5.565415e-07 1.918845e-06
149            9.587115e-03 1.982726e-05 2.497521e-05 2.152853e-03 2.037691e-05 2.305046e-05 7.434262e-03 -5.496411e-07 1.924749e-06
150            9.576032e-03 1.974387e-05 2.489748e-05 2.152315e-03 2.028660e-05 2.296679e-05 7.423717e-03 -5.427206e-07 1.930685e-06
151            9.565291e-03 1.966166e-05 2.482096e-05 2.151797e-03 2.019745e-05 2.288431e-05 7.413493e-03 -5.357833e-07 1.936650e-06
152            9.554881e-03 1.958086e-05 2.474578e-05 2.151300e-03 2.010969e-05 2.280314e-05 7.403581e-03 -5.288294e-07 1.942640e-06
153            9.544793e-03 1.950164e-05 2.467214e-05 2.150822e-03 2.002350e-05 2.272348e-05 7.393971e-03 -5.218597e-07 1.948655e-06
154            9.535016e-03 1.942415e-05 2.460025e-05 2.150361e-03 1.993902e-05 2.264555e-05 7.384655e-03 -5.148754e-07 1.954696e-06
155            9.525541e-03 1.934848e-05 2.453022e-05 2.149918e-03 1.985636e-05 2.256946e-05 7.375623e-03 -5.078731e-07 1.960763e-06
156            9.516359e-03 1.927466e-05 2.446205e-05 2.149492e-03 1.977551e-05 2.249520e-05 7.366867e-03 -5.008533e-07 1.966858e-06
157            9.507460e-03 1.920266e-05 2.439574e-05 2.149081e-03 1.969648e-05 2.242276e-05 7.358379e-03 -4.938177e-07 1.972978e-06
158            9.498834e-03 1.913242e-05 2.433121e-05 2.148684e-03 1.961918e-05 2.235209e-05 7.350150e-03 -4.867662e-07 1.979126e-06
159            9.490473e-03 1.906390e-05 2.426842e-05 2.148301e-03 1.954360e-05 2.228312e-05 7.342172e-03 -4.796996e-07 1.985298e-06
160            9.482369e-03 1.899702e-05 2.420733e-05 2.147931e-03 1.946964e-05 2.221583e-05 7.334438e-03 -4.726182e-07 1.991495e-06
161            9.474512e-03 1.893178e-05 2.414792e-05 2.147572e-03 1.939731e-05 2.215020e-05 7.326940e-03 -4.655223e-07 1.997716e-06
162            9.466895e-03 1.886819e-05 2.409015e-05 2.147226e-03 1.932660e-05 2.208619e-05 7.319669e-03 -4.584135e-07 2.003960e-06
163            9.459511e-03 1.880620e-05 2.403397e-05 2.146890e-03 1.925749e-05 2.202375e-05 7.312621e-03 -4.512884e-07 2.010227e-06
164            9.452352e-03 1.874579e-05 2.397933e-05 2.146566e-03 1.918993e-05 2.196281e-05 7.305786e-03 -4.441459e-07 2.016519e-06
165            9.445410e-03 1.868686e-05 2.392612e-05 2.146252e-03 1.912385e-05 2.190328e-05 7.299159e-03 -4.369836e-07 2.022837e-06
166            9.438680e-03 1.862936e-05 2.387425e-05 2.145948e-03 1.905915e-05 2.184506e-05 7.292733e-03 -4.297978e-07 2.029186e-06
167            9.432156e-03 1.857312e-05 2.382360e-05 2.145655e-03 1.899570e-05 2.178803e-05 7.286501e-03 -4.225850e-07 2.035572e-06
168            9.425829e-03 1.851796e-05 2.377406e-05 2.145371e-03 1.893330e-05 2.173206e-05 7.280458e-03 -4.153409e-07 2.041995e-06
169            9.419695e-03 1.846367e-05 2.372549e-05 2.145098e-03 1.887173e-05 2.167703e-05 7.274597e-03 -4.080624e-07 2.048461e-06
170            9.413746e-03 1.840997e-05 2.367772e-05 2.144835e-03 1.881072e-05 2.162274e-05 7.268912e-03 -4.007480e-07 2.054972e-06
171            9.407978e-03 1.835657e-05 2.363032e-05 2.144580e-03 1.874996e-05 2.156879e-05 7.263398e-03 -3.933950e-07 2.061530e-06
172            9.402384e-03 1.830302e-05 2.358289e-05 2.144335e-03 1.868902e-05 2.151475e-05 7.258049e-03 -3.860036e-07 2.068137e-06
173            9.396958e-03 1.824898e-05 2.353500e-05 2.144098e-03 1.862755e-05 2.146021e-05 7.252860e-03 -3.785738e-07 2.074792e-06
174            9.391695e-03 1.819415e-05 2.348638e-05 2.143869e-03 1.856525e-05 2.140488e-05 7.247826e-03 -3.711049e-07 2.081495e-06
175            9.386590e-03 1.813822e-05 2.343675e-05 2.143649e-03 1.850181e-05 2.134850e-05 7.242941e-03 -3.635955e-07 2.088247e-06
176            9.381637e-03 1.808090e-05 2.338588e-05 2.143435e-03 1.843694e-05 2.129082e-05 7.238202e-03 -3.560441e-07 2.095051e-06
177            9.376833e-03 1.802190e-05 2.333349e-05 2.143229e-03 1.837035e-05 2.123158e-05 7.233604e-03 -3.484504e-07 2.101906e-06
178            9.372171e-03 1.796092e-05 2.327925e-05 2.143031e-03 1.830174e-05 2.117044e-05 7.229141e-03 -3.408145e-07 2.108813e-06
179            9.367648e-03 1.789762e-05 2.322278e-05 2.142839e-03 1.823076e-05 2.110701e-05 7.224809e-03 -3.331354e-07 2.115775e-06
180            9.363259e-03 1.783165e-05 2.316370e-05 2.142654e-03 1.815706e-05 2.104091e-05 7.220605e-03 -3.254115e-07 2.122794e-06
181            9.359000e-03 1.776262e-05 2.310159e-05 2.142476e-03 1.808026e-05 2.097172e-05 7.216524e-03 -3.176422e-07 2.129869e-06
182            9.354867e-03 1.769012e-05 2.303604e-05 2.142304e-03 1.799995e-05 2.089903e-05 7.212563e-03 -3.098267e-07 2.137003e-06
183            9.350855e-03 1.761378e-05 2.296664e-05 2.142139e-03 1.791575e-05 2.082245e-05 7.208716e-03 -3.019645e-07 2.144194e-06
184            9.346962e-03 1.753319e-05 2.289305e-05 2.141981e-03 1.782725e-05 2.074161e-05 7.204981e-03 -2.940555e-07 2.151444e-06
185            9.343183e-03 1.744792e-05 2.281485e-05 2.141829e-03 1.773402e-05 2.065610e-05 7.201354e-03 -2.861000e-07 2.158754e-06
186            9.339515e-03 1.735754e-05 2.273163e-05 2.141683e-03 1.763564e-05 2.056550e-05 7.197831e-03 -2.780984e-07 2.166125e-06
187            9.335954e-03 1.726168e-05 2.264295e-05 2.141544e-03 1.753173e-05 2.046940e-05 7.194410e-03 -2.700505e-07 2.173555e-06
188            9.332496e-03 1.715998e-05 2.254848e-05 2.141411e-03 1.742194e-05 2.036744e-05 7.191085e-03 -2.619567e-07 2.181044e-06
189            9.329139e-03 1.705211e-05 2.244794e-05 2.141283e-03 1.730593e-05 2.025935e-05 7.187856e-03 -2.538170e-07 2.188591e-06
190            9.325880e-03 1.693777e-05 2.234103e-05 2.141161e-03 1.718341e-05 2.014483e-05 7.184719e-03 -2.456326e-07 2.196195e-06
191            9.322716e-03 1.681677e-05 2.222747e-05 2.141045e-03 1.705417e-05 2.002361e-05 7.181671e-03 -2.374052e-07 2.203854e-06
192            9.319643e-03 1.668891e-05 2.210699e-05 2.140933e-03 1.691805e-05 1.989542e-05 7.178710e-03 -2.291367e-07 2.211566e-06
193            9.316659e-03 1.655403e-05 2.197936e-05 2.140827e-03 1.677486e-05 1.976003e-05 7.175832e-03 -2.208293e-07 2.219328e-06
194            9.313761e-03 1.641193e-05 2.184438e-05 2.140725e-03 1.662441e-05 1.961725e-05 7.173036e-03 -2.124861e-07 2.227134e-06
195            9.310947e-03 1.626243e-05 2.170191e-05 2.140628e-03 1.646654e-05 1.946693e-05 7.170319e-03 -2.041113e-07 2.234981e-06
196            9.308213e-03 1.610538e-05 2.155182e-05 2.140536e-03 1.630109e-05 1.930896e-05 7.167677e-03 -1.957097e-07 2.242863e-06
197            9.305558e-03 1.594065e-05 2.139404e-05 2.140448e-03 1.612794e-05 1.914326e-05 7.165110e-03 -1.872876e-07 2.250775e-06
198            9.302980e-03 1.576816e-05 2.122853e-05 2.140365e-03 1.594701e-05 1.896982e-05 7.162614e-03 -1.788519e-07 2.258710e-06
199            9.300475e-03 1.558788e-05 2.105528e-05 2.140287e-03 1.575829e-05 1.878862e-05 7.160188e-03 -1.704103e-07 2.266660e-06
200            9.298043e-03 1.539979e-05 2.087431e-05 2.140213e-03 1.556176e-05 1.859969e-05 7.157830e-03 -1.619708e-07 2.274618e-06
201            9.295680e-03 1.520391e-05 2.068561e-05 2.140144e-03 1.535745e-05 1.840304e-05 7.155536e-03 -1.535424e-07 2.282571e-06
202            9.293385e-03 1.500062e-05 2.048963e-05 2.140081e-03 1.514575e-05 1.819911e-05 7.153304e-03 -1.451316e-07 2.290517e-06
203            9.291155e-03 1.479011e-05 2.028650e-05 2.140023e-03 1.492686e-05 1.798805e-05 7.151132e-03 -1.367459e-07 2.298445e-06
204            9.288990e-03 1.457247e-05 2.007631e-05 2.139972e-03 1.470087e-05 1.776996e-05 7.149018e-03 -1.283933e-07 2.306349e-06
205            9.286889e-03 1.434770e-05 1.985906e-05 2.139926e-03 1.446779e-05 1.754484e-05 7.146962e-03 -1.200847e-07 2.314217e-06
206            9.284849e-03 1.411581e-05 1.963471e-05 2.139886e-03 1.422764e-05 1.731267e-05 7.144962e-03 -1.118322e-07 2.322037e-06
207            9.282868e-03 1.387682e-05 1.940322e-05 2.139850e-03 1.398047e-05 1.707342e-05 7.143018e-03 -1.036495e-07 2.329797e-06
208            9.280945e-03 1.363081e-05 1.916462e-05 2.139819e-03 1.372636e-05 1.682713e-05 7.141126e-03 -9.555003e-08 2.337481e-06
209            9.279079e-03 1.337790e-05 1.891901e-05 2.139791e-03 1.346545e-05 1.657394e-05 7.139288e-03 -8.754789e-08 2.345075e-06
210            9.277267e-03 1.311831e-05 1.866662e-05 2.139767e-03 1.319796e-05 1.631405e-05 7.137500e-03 -7.965656e-08 2.352568e-06
211            9.275509e-03 1.285228e-05 1.840772e-05 2.139746e-03 1.292417e-05 1.604777e-05 7.135763e-03 -7.188885e-08 2.359944e-06
212            9.273803e-03 1.258014e-05 1.814264e-05 2.139729e-03 1.264440e-05 1.577545e-05 7.134074e-03 -6.425703e-08 2.367192e-06
213            9.272147e-03 1.230224e-05 1.787176e-05 2.139714e-03 1.235901e-05 1.549746e-05 7.132433e-03 -5.677244e-08 2.374301e-06
214            9.270540e-03 1.201893e-05 1.759545e-05 2.139703e-03 1.206837e-05 1.521419e-05 7.130837e-03 -4.944577e-08 2.381260e-06
215            9.268981e-03 1.173059e-05 1.731411e-05 2.139694e-03 1.177288e-05 1.492605e-05 7.129287e-03 -4.228689e-08 2.388060e-06
216            9.267471e-03 1.143706e-05 1.702753e-05 2.139687e-03 1.147237e-05 1.463284e-05 7.127783e-03 -3.531011e-08 2.394686e-06
217            9.266004e-03 1.113856e-05 1.673591e-05 2.139681e-03 1.116709e-05 1.433479e-05 7.126323e-03 -2.852989e-08 2.401123e-06
218            9.264578e-03 1.083552e-05 1.643969e-05 2.139675e-03 1.085748e-05 1.403233e-05 7.124904e-03 -2.195577e-08 2.407363e-06
219            9.263192e-03 1.052855e-05 1.613946e-05 2.139670e-03 1.054414e-05 1.372606e-05 7.123522e-03 -1.559339e-08 2.413400e-06
220            9.261844e-03 1.021828e-05 1.583588e-05 2.139666e-03 1.022773e-05 1.341665e-05 7.122178e-03 -9.444901e-09 2.419232e-06
221            9.260534e-03 9.905383e-06 1.552962e-05 2.139664e-03 9.908893e-06 1.310476e-05 7.120870e-03 -3.509522e-09 2.424858e-06
222            9.259261e-03 9.590480e-06 1.522130e-05 2.139665e-03 9.588264e-06 1.279102e-05 7.119596e-03 2.215643e-09 2.430282e-06
223            9.258024e-03 9.274135e-06 1.491148e-05 2.139667e-03 9.266400e-06 1.247597e-05 7.118356e-03 7.734464e-09 2.435509e-06