# Force       
# CofR        : (0.000000e+00 0.000000e+00 0.000000e+00)
#
# Time        	total_x total_y total_z	pressure_x pressure_y pressure_z	viscous_x viscous_y viscous_z
1              6.336030e-01 -1.001224e-03 -2.889623e-03 5.325224e-01 -9.991281e-04 -2.885695e-03 1.010806e-01 -2.095717e-06 -3.928310e-06
2              7.183867e-01 -9.928950e-04 -2.700763e-03 6.193653e-01 -9.926678e-04 -2.715605e-03 9.902137e-02 -2.271431e-07 1.484218e-05
3              6.381845e-01 -7.977234e-04 -2.801965e-03 5.406899e-01 -7.983567e-04 -2.829353e-03 9.749460e-02 6.333202e-07 2.738830e-05
4              4.767365e-01 -5.517393e-04 -2.907171e-03 3.803848e-01 -5.521085e-04 -2.938422e-03 9.635171e-02 3.691983e-07 3.125038e-05
5              2.963769e-01 -2.688555e-04 -2.470110e-03 2.008535e-01 -2.680769e-04 -2.498381e-03 9.552338e-02 -7.786484e-07 2.827070e-05
6              1.416193e-01 1.721012e-05 -1.323478e-03 4.667473e-02 1.966344e-05 -1.345194e-03 9.494452e-02 -2.453315e-06 2.171630e-05
7              3.591417e-02 2.695161e-04 3.182945e-04 -5.862474e-02 2.736435e-04 3.036810e-04 9.453891e-02 -4.127443e-06 1.461349e-05
8              -1.570638e-02 4.298015e-04 1.930270e-03 -1.098775e-01 4.351202e-04 1.921065e-03 9.417112e-02 -5.318688e-06 9.205928e-06
9              -2.013174e-02 5.574504e-04 3.109995e-03 -1.139059e-01 5.633278e-04 3.103558e-03 9.377418e-02 -5.877365e-06 6.437912e-06
10             2.360217e-03 5.102546e-04 3.807855e-03 -9.094096e-02 5.162869e-04 3.801501e-03 9.330117e-02 -6.032247e-06 6.353849e-06
11             4.083383e-02 1.810163e-04 3.032372e-03 -5.190007e-02 1.869802e-04 3.024581e-03 9.273390e-02 -5.963893e-06 7.791422e-06
12             8.104847e-02 -1.722158e-04 1.548629e-03 -1.103453e-02 -1.663923e-04 1.538991e-03 9.208300e-02 -5.823556e-06 9.638372e-06
13             1.120010e-01 -4.704337e-04 2.197660e-04 2.063053e-02 -4.646393e-04 2.085790e-04 9.137043e-02 -5.794387e-06 1.118699e-05
14             1.331849e-01 -7.032260e-04 -1.270545e-03 4.255990e-02 -6.973267e-04 -1.282333e-03 9.062497e-02 -5.899346e-06 1.178883e-05
15             1.438874e-01 -8.289862e-04 -2.483187e-03 5.401289e-02 -8.229137e-04 -2.494597e-03 8.987450e-02 -6.072455e-06 1.140981e-05
16             1.461407e-01 -8.268800e-04 -3.178362e-03 5.700272e-02 -8.206262e-04 -3.188663e-03 8.913797e-02 -6.253778e-06 1.030071e-05
17             1.428532e-01 -6.674310e-04 -3.231854e-03 5.442562e-02 -6.610265e-04 -3.240728e-03 8.842759e-02 -6.404506e-06 8.873958e-06
18             1.365150e-01 -3.936625e-04 -2.634654e-03 4.876523e-02 -3.871597e-04 -2.642236e-03 8.774979e-02 -6.502800e-06 7.582025e-06
19             1.292617e-01 -9.378198e-05 -1.557771e-03 4.215174e-02 -8.720174e-05 -1.564569e-03 8.710993e-02 -6.580236e-06 6.798255e-06
20             1.226198e-01 1.421565e-04 -2.918206e-04 3.611529e-02 1.488278e-04 -2.985273e-04 8.650453e-02 -6.671331e-06 6.706699e-06
21             1.174366e-01 2.565616e-04 8.492412e-04 3.151494e-02 2.633734e-04 8.419897e-04 8.592170e-02 -6.811771e-06 7.251442e-06
22             1.139618e-01 2.378036e-04 1.633127e-03 2.860576e-02 2.448263e-04 1.624871e-03 8.535602e-02 -7.022689e-06 8.256220e-06
23             1.119814e-01 9.991428e-05 1.963184e-03 2.717765e-02 1.072188e-04 1.953721e-03 8.480374e-02 -7.304524e-06 9.463013e-06
24             1.110864e-01 -1.207478e-04 1.836135e-03 2.682404e-02 -1.131077e-04 1.825546e-03 8.426237e-02 -7.640082e-06 1.058935e-05
25             1.108566e-01 -3.591650e-04 1.333378e-03 2.712582e-02 -3.511692e-04 1.321970e-03 8.373077e-02 -7.995787e-06 1.140710e-05
26             1.109256e-01 -5.465322e-04 6.113703e-04 2.771668e-02 -5.381924e-04 5.996003e-04 8.320896e-02 -8.339826e-06 1.176997e-05
27             1.110056e-01 -6.414642e-04 -1.358374e-04 2.830808e-02 -6.328255e-04 -1.474628e-04 8.269751e-02 -8.638701e-06 1.162537e-05
28             1.109483e-01 -6.264694e-04 -7.654949e-04 2.875087e-02 -6.176604e-04 -7.766546e-04 8.219748e-02 -8.808985e-06 1.115975e-05
29             1.107142e-01 -5.007342e-04 -1.174837e-03 2.900454e-02 -4.918114e-04 -1.185321e-03 8.170964e-02 -8.922787e-06 1.048468e-05
30             1.103193e-01 -3.099543e-04 -1.321954e-03 2.908446e-02 -3.010595e-04 -1.331681e-03 8.123480e-02 -8.894836e-06 9.727854e-06
31             1.098057e-01 -1.042637e-04 -1.226535e-03 2.903236e-02 -9.543880e-05 -1.235572e-03 8.077336e-02 -8.824865e-06 9.037669e-06
32             1.092233e-01 7.872677e-05 -9.564462e-04 2.889780e-02 8.746815e-05 -9.649513e-04 8.032551e-02 -8.741383e-06 8.505100e-06
33             1.086197e-01 2.159950e-04 -5.881304e-04 2.872852e-02 2.246757e-04 -5.962932e-04 7.989117e-02 -8.680738e-06 8.162751e-06
34             1.080329e-01 2.922813e-04 -1.958248e-04 2.856285e-02 3.009418e-04 -2.038691e-04 7.947002e-02 -8.660477e-06 8.044336e-06
35             1.074874e-01 3.027683e-04 1.555184e-04 2.842563e-02 3.114557e-04 1.474043e-04 7.906177e-02 -8.687314e-06 8.114103e-06
36             1.069951e-01 2.520186e-04 4.217852e-04 2.832929e-02 2.607931e-04 4.134613e-04 7.866578e-02 -8.774482e-06 8.323879e-06
37             1.065549e-01 1.545873e-04 5.690616e-04 2.827349e-02 1.635003e-04 5.604495e-04 7.828139e-02 -8.913057e-06 8.612065e-06
38             1.061540e-01 4.306298e-05 5.810042e-04 2.824597e-02 5.215138e-05 5.721141e-04 7.790802e-02 -9.088401e-06 8.890056e-06
39             1.057798e-01 -5.275686e-05 4.837650e-04 2.823464e-02 -4.348170e-05 4.746611e-04 7.754513e-02 -9.275156e-06 9.103898e-06
40             1.054221e-01 -1.142884e-04 3.285132e-04 2.822986e-02 -1.048441e-04 3.192844e-04 7.719221e-02 -9.444304e-06 9.228809e-06
41             1.050738e-01 -1.407357e-04 1.614363e-04 2.822498e-02 -1.311509e-04 1.521717e-04 7.684882e-02 -9.584868e-06 9.264639e-06
42             1.047287e-01 -1.366242e-04 9.288523e-06 2.821417e-02 -1.269409e-04 6.355163e-08 7.651453e-02 -9.683283e-06 9.224972e-06
43             1.043819e-01 -1.063053e-04 -1.087584e-04 2.819287e-02 -9.656622e-05 -1.178741e-04 7.618904e-02 -9.739118e-06 9.115686e-06
44             1.040322e-01 -5.835633e-05 -1.755784e-04 2.816016e-02 -4.858428e-05 -1.845375e-04 7.587202e-02 -9.772047e-06 8.959075e-06
45             1.036805e-01 -3.997679e-06 -1.870331e-04 2.811744e-02 5.787431e-06 -1.958232e-04 7.556309e-02 -9.785110e-06 8.790047e-06
46             1.033292e-01 4.640961e-05 -1.512387e-04 2.806711e-02 5.619615e-05 -1.598703e-04 7.526204e-02 -9.786545e-06 8.631578e-06
47             1.029803e-01 8.561117e-05 -8.382423e-05 2.801175e-02 9.540012e-05 -9.233460e-05 7.496860e-02 -9.788951e-06 8.510369e-06
48             1.026364e-01 1.095815e-04 -4.012776e-06 2.795391e-02 1.193821e-04 -1.244160e-05 7.468250e-02 -9.800597e-06 8.428827e-06
49             1.022990e-01 1.185148e-04 6.970479e-05 2.789548e-02 1.283427e-04 6.132472e-05 7.440348e-02 -9.827943e-06 8.380063e-06
50             1.019689e-01 1.160712e-04 1.259990e-04 2.783757e-02 1.259426e-04 1.176420e-04 7.413130e-02 -9.871426e-06 8.356955e-06
51             1.016467e-01 1.068988e-04 1.604531e-04 2.778096e-02 1.168251e-04 1.521022e-04 7.386571e-02 -9.926400e-06 8.350838e-06
52             1.013326e-01 9.507532e-05 1.741297e-04 2.772614e-02 1.050636e-04 1.657745e-04 7.360646e-02 -9.988289e-06 8.355226e-06
53             1.010269e-01 8.432728e-05 1.707771e-04 2.767361e-02 9.437892e-05 1.624182e-04 7.335331e-02 -1.005164e-05 8.358864e-06
54             1.007295e-01 7.703649e-05 1.562669e-04 2.762350e-02 8.714983e-05 1.479096e-04 7.310598e-02 -1.011334e-05 8.357355e-06
55             1.004400e-01 7.439710e-05 1.366566e-04 2.757577e-02 8.456655e-05 1.283081e-04 7.286424e-02 -1.016944e-05 8.348496e-06
56             1.001581e-01 7.668496e-05 1.172468e-04 2.753022e-02 8.690120e-05 1.089179e-04 7.262786e-02 -1.021624e-05 8.328851e-06
57             9.988346e-02 8.338226e-05 1.024618e-04 2.748683e-02 9.363617e-05 9.415988e-05 7.239662e-02 -1.025391e-05 8.301895e-06
58             9.961609e-02 9.303914e-05 9.526948e-05 2.744578e-02 1.033230e-04 8.699830e-05 7.217031e-02 -1.028384e-05 8.271180e-06
59             9.935566e-02 1.037277e-04 9.610059e-05 2.740694e-02 1.140360e-04 8.786093e-05 7.194872e-02 -1.030834e-05 8.239658e-06
60             9.910135e-02 1.138994e-04 1.032817e-04 2.736970e-02 1.242292e-04 9.507268e-05 7.173165e-02 -1.032983e-05 8.208973e-06
61             9.885214e-02 1.226961e-04 1.144033e-04 2.733322e-02 1.330467e-04 1.062229e-04 7.151892e-02 -1.035070e-05 8.180451e-06
62             9.861098e-02 1.297780e-04 1.259113e-04 2.730061e-02 1.401496e-04 1.177584e-04 7.131037e-02 -1.037159e-05 8.152860e-06
63             9.837511e-02 1.352157e-04 1.364664e-04 2.726923e-02 1.456084e-04 1.283382e-04 7.110588e-02 -1.039269e-05 8.128257e-06
64             9.814622e-02 1.381493e-04 1.452195e-04 2.724093e-02 1.485660e-04 1.371126e-04 7.090529e-02 -1.041665e-05 8.106890e-06
65             9.792109e-02 1.395695e-04 1.520225e-04 2.721261e-02 1.500107e-04 1.439347e-04 7.070848e-02 -1.044115e-05 8.087753e-06
66             9.769433e-02 1.416051e-04 1.572510e-04 2.717904e-02 1.520691e-04 1.491813e-04 7.051529e-02 -1.046406e-05 8.069631e-06
67             9.747055e-02 1.435364e-04 1.610351e-04 2.714497e-02 1.540249e-04 1.529798e-04 7.032559e-02 -1.048855e-05 8.055371e-06
68             9.724959e-02 1.459222e-04 1.639865e-04 2.711034e-02 1.564341e-04 1.559448e-04 7.013925e-02 -1.051184e-05 8.041675e-06
69             9.703155e-02 1.490805e-04 1.666968e-04 2.707539e-02 1.596139e-04 1.586680e-04 6.995616e-02 -1.053341e-05 8.028768e-06
70             9.681659e-02 1.530484e-04 1.696203e-04 2.704039e-02 1.636014e-04 1.616036e-04 6.977620e-02 -1.055306e-05 8.016685e-06
71             9.660471e-02 1.576538e-04 1.730080e-04 2.700548e-02 1.682248e-04 1.650029e-04 6.959923e-02 -1.057103e-05 8.005118e-06
72             9.639587e-02 1.626360e-04 1.769221e-04 2.697071e-02 1.732234e-04 1.689287e-04 6.942516e-02 -1.058739e-05 7.993381e-06
73             9.619002e-02 1.677342e-04 1.812930e-04 2.693615e-02 1.783367e-04 1.733113e-04 6.925387e-02 -1.060247e-05 7.981741e-06
74             9.598717e-02 1.727332e-04 1.859721e-04 2.690190e-02 1.833495e-04 1.780023e-04 6.908527e-02 -1.061623e-05 7.969840e-06
75             9.578736e-02 1.774913e-04 1.907824e-04 2.686811e-02 1.881209e-04 1.828249e-04 6.891925e-02 -1.062957e-05 7.957418e-06
76             9.559062e-02 1.819471e-04 1.955600e-04 2.683489e-02 1.925898e-04 1.876155e-04 6.875573e-02 -1.064263e-05 7.944577e-06
77             9.539697e-02 1.861145e-04 2.001852e-04 2.680234e-02 1.967698e-04 1.922540e-04 6.859463e-02 -1.065523e-05 7.931180e-06
78             9.520639e-02 1.900580e-04 2.045935e-04 2.677052e-02 2.007259e-04 1.966762e-04 6.843588e-02 -1.066790e-05 7.917271e-06
79             9.501880e-02 1.938666e-04 2.087716e-04 2.673941e-02 2.045472e-04 2.008686e-04 6.827939e-02 -1.068061e-05 7.902987e-06
80             9.483411e-02 1.976285e-04 2.127446e-04 2.670898e-02 2.083213e-04 2.048563e-04 6.812513e-02 -1.069282e-05 7.888322e-06
81             9.465224e-02 2.014121e-04 2.165611e-04 2.667918e-02 2.121168e-04 2.086879e-04 6.797306e-02 -1.070474e-05 7.873206e-06
82             9.447299e-02 2.052539e-04 2.202844e-04 2.664989e-02 2.159706e-04 2.124266e-04 6.782310e-02 -1.071671e-05 7.857729e-06
83             9.429617e-02 2.091600e-04 2.239784e-04 2.662100e-02 2.198883e-04 2.161364e-04 6.767517e-02 -1.072828e-05 7.842008e-06
84             9.412165e-02 2.131151e-04 2.276938e-04 2.659239e-02 2.238548e-04 2.198674e-04 6.752926e-02 -1.073969e-05 7.826430e-06
85             9.394934e-02 2.170971e-04 2.314622e-04 2.656396e-02 2.278483e-04 2.236512e-04 6.738538e-02 -1.075117e-05 7.811051e-06
86             9.377912e-02 2.210846e-04 2.352978e-04 2.653568e-02 2.318470e-04 2.275018e-04 6.724344e-02 -1.076245e-05 7.796014e-06
87             9.361098e-02 2.250605e-04 2.391985e-04 2.650755e-02 2.358339e-04 2.314177e-04 6.710343e-02 -1.077338e-05 7.780782e-06
88             9.344493e-02 2.290150e-04 2.431490e-04 2.647963e-02 2.397990e-04 2.353834e-04 6.696530e-02 -1.078402e-05 7.765568e-06
89             9.328100e-02 2.329395e-04 2.471247e-04 2.645200e-02 2.437339e-04 2.393743e-04 6.682900e-02 -1.079443e-05 7.750452e-06
90             9.311924e-02 2.368295e-04 2.510996e-04 2.642476e-02 2.476340e-04 2.433641e-04 6.669448e-02 -1.080453e-05 7.735510e-06
91             9.295967e-02 2.406833e-04 2.550505e-04 2.639796e-02 2.514969e-04 2.473291e-04 6.656171e-02 -1.081361e-05 7.721420e-06
92             9.280233e-02 2.445020e-04 2.589608e-04 2.637167e-02 2.553244e-04 2.512530e-04 6.643066e-02 -1.082237e-05 7.707728e-06
93             9.264719e-02 2.482858e-04 2.628203e-04 2.634592e-02 2.591171e-04 2.551266e-04 6.630127e-02 -1.083128e-05 7.693713e-06
94             9.249423e-02 2.520433e-04 2.666273e-04 2.632071e-02 2.628831e-04 2.589478e-04 6.617351e-02 -1.083981e-05 7.679467e-06
95             9.234335e-02 2.557746e-04 2.703827e-04 2.629602e-02 2.666227e-04 2.627175e-04 6.604733e-02 -1.084815e-05 7.665252e-06
96             9.219450e-02 2.594749e-04 2.740898e-04 2.627179e-02 2.703312e-04 2.664387e-04 6.592271e-02 -1.085629e-05 7.651093e-06
97             9.204756e-02 2.631409e-04 2.777587e-04 2.624796e-02 2.740055e-04 2.701218e-04 6.579961e-02 -1.086454e-05 7.636876e-06
98             9.190244e-02 2.667719e-04 2.814029e-04 2.622444e-02 2.776447e-04 2.737804e-04 6.567800e-02 -1.087284e-05 7.622467e-06
99             9.175909e-02 2.703691e-04 2.850315e-04 2.620120e-02 2.812498e-04 2.774234e-04 6.555788e-02 -1.088077e-05 7.608096e-06
100            9.161744e-02 2.739342e-04 2.886455e-04 2.617821e-02 2.848232e-04 2.810518e-04 6.543923e-02 -1.088905e-05 7.593724e-06
101            9.147749e-02 2.774694e-04 2.922397e-04 2.615548e-02 2.883672e-04 2.846606e-04 6.532201e-02 -1.089785e-05 7.579135e-06
102            9.133927e-02 2.809777e-04 2.958079e-04 2.613304e-02 2.918845e-04 2.882431e-04 6.520623e-02 -1.090673e-05 7.564802e-06
103            9.120279e-02 2.844641e-04 2.993438e-04 2.611092e-02 2.953792e-04 2.917932e-04 6.509187e-02 -1.091509e-05 7.550571e-06
104            9.106808e-02 2.879270e-04 3.028378e-04 2.608918e-02 2.988503e-04 2.953014e-04 6.497890e-02 -1.092333e-05 7.536406e-06
105            9.093517e-02 2.913615e-04 3.062799e-04 2.606784e-02 3.022928e-04 2.987573e-04 6.486733e-02 -1.093130e-05 7.522611e-06
106            9.080409e-02 2.947568e-04 3.096614e-04 2.604694e-02 3.056956e-04 3.021526e-04 6.475715e-02 -1.093874e-05 7.508804e-06
107            9.067484e-02 2.980981e-04 3.129747e-04 2.602648e-02 3.090440e-04 3.054795e-04 6.464836e-02 -1.094596e-05 7.495197e-06
108            9.054744e-02 3.013686e-04 3.162127e-04 2.600645e-02 3.123213e-04 3.087305e-04 6.454099e-02 -1.095264e-05 7.482162e-06
109            9.042184e-02 3.045524e-04 3.193683e-04 2.598686e-02 3.155114e-04 3.118986e-04 6.443498e-02 -1.095897e-05 7.469712e-06
110            9.029803e-02 3.076365e-04 3.224335e-04 2.596768e-02 3.186012e-04 3.149757e-04 6.433035e-02 -1.096477e-05 7.457853e-06
111            9.017599e-02 3.106096e-04 3.253995e-04 2.594888e-02 3.215796e-04 3.179531e-04 6.422711e-02 -1.096998e-05 7.446368e-06
112            9.005047e-02 3.134645e-04 3.282602e-04 2.593043e-02 3.244400e-04 3.208256e-04 6.412005e-02 -1.097557e-05 7.434547e-06
113            8.992660e-02 3.161953e-04 3.309930e-04 2.591190e-02 3.271762e-04 3.235698e-04 6.401470e-02 -1.098087e-05 7.423226e-06
114            8.980411e-02 3.188043e-04 3.335933e-04 2.589310e-02 3.297900e-04 3.261806e-04 6.391101e-02 -1.098564e-05 7.412673e-06
115            8.968300e-02 3.212947e-04 3.360700e-04 2.587407e-02 3.322850e-04 3.286678e-04 6.380893e-02 -1.099031e-05 7.402271e-06
116            8.956337e-02 3.236712e-04 3.384376e-04 2.585494e-02 3.346665e-04 3.310458e-04 6.370843e-02 -1.099527e-05 7.391844e-06
117            8.944542e-02 3.259410e-04 3.407097e-04 2.583591e-02 3.369413e-04 3.333281e-04 6.360951e-02 -1.100027e-05 7.381611e-06
118            8.932928e-02 3.281136e-04 3.428988e-04 2.581714e-02 3.391190e-04 3.355276e-04 6.351214e-02 -1.100533e-05 7.371275e-06
119            8.921510e-02 3.302003e-04 3.450143e-04 2.579876e-02 3.412113e-04 3.376535e-04 6.341634e-02 -1.101099e-05 7.360754e-06
120            8.910294e-02 3.322140e-04 3.470636e-04 2.578085e-02 3.432310e-04 3.397132e-04 6.332210e-02 -1.101698e-05 7.350397e-06
121            8.899281e-02 3.341660e-04 3.490516e-04 2.576343e-02 3.451896e-04 3.417118e-04 6.322938e-02 -1.102359e-05 7.339845e-06
122            8.888471e-02 3.360675e-04 3.509847e-04 2.574650e-02 3.470989e-04 3.436550e-04 6.313821e-02 -1.103139e-05 7.329647e-06
123            8.877859e-02 3.379296e-04 3.528700e-04 2.573001e-02 3.489698e-04 3.455510e-04 6.304858e-02 -1.104023e-05 7.318988e-06
124            8.867440e-02 3.397603e-04 3.547161e-04 2.571394e-02 3.508100e-04 3.474083e-04 6.296046e-02 -1.104966e-05 7.307870e-06
125            8.857209e-02 3.415659e-04 3.565319e-04 2.569823e-02 3.526254e-04 3.492359e-04 6.287386e-02 -1.105948e-05 7.296023e-06
126            8.847160e-02 3.433533e-04 3.583271e-04 2.568283e-02 3.544231e-04 3.510435e-04 6.278877e-02 -1.106976e-05 7.283642e-06
127            8.837290e-02 3.451276e-04 3.601109e-04 2.566771e-02 3.562081e-04 3.528400e-04 6.270518e-02 -1.108047e-05 7.270898e-06
128            8.827596e-02 3.468930e-04 3.618896e-04 2.565284e-02 3.579851e-04 3.546316e-04 6.262311e-02 -1.109214e-05 7.258020e-06
129            8.818074e-02 3.486535e-04 3.636676e-04 2.563819e-02 3.597575e-04 3.564226e-04 6.254254e-02 -1.110391e-05 7.244969e-06
130            8.808721e-02 3.504123e-04 3.654469e-04 2.562375e-02 3.615278e-04 3.582149e-04 6.246346e-02 -1.111549e-05 7.232063e-06
131            8.799538e-02 3.521715e-04 3.672280e-04 2.560951e-02 3.632986e-04 3.600089e-04 6.238586e-02 -1.112705e-05 7.219085e-06
132            8.790523e-02 3.539319e-04 3.690107e-04 2.559548e-02 3.650704e-04 3.618047e-04 6.230976e-02 -1.113847e-05 7.206008e-06
133            8.781679e-02 3.556924e-04 3.707938e-04 2.558165e-02 3.668418e-04 3.636007e-04 6.223514e-02 -1.114937e-05 7.193134e-06
134            8.773004e-02 3.574500e-04 3.725747e-04 2.556805e-02 3.686091e-04 3.653940e-04 6.216199e-02 -1.115908e-05 7.180700e-06
135            8.764501e-02 3.591988e-04 3.743498e-04 2.555469e-02 3.703669e-04 3.671807e-04 6.209033e-02 -1.116810e-05 7.169148e-06
136            8.756169e-02 3.609340e-04 3.761149e-04 2.554157e-02 3.721099e-04 3.689564e-04 6.202012e-02 -1.117584e-05 7.158499e-06
137            8.748009e-02 3.626477e-04 3.778641e-04 2.552872e-02 3.738302e-04 3.707149e-04 6.195137e-02 -1.118252e-05 7.149174e-06
138            8.740021e-02 3.643297e-04 3.795879e-04 2.551613e-02 3.755171e-04 3.724458e-04 6.188408e-02 -1.118738e-05 7.142057e-06
139            8.732205e-02 3.659678e-04 3.812732e-04 2.550382e-02 3.771578e-04 3.741364e-04 6.181823e-02 -1.118999e-05 7.136758e-06
140            8.724560e-02 3.675467e-04 3.829065e-04 2.549178e-02 3.787367e-04 3.757733e-04 6.175382e-02 -1.119004e-05 7.133187e-06
141            8.717086e-02 3.690489e-04 3.844747e-04 2.548002e-02 3.802367e-04 3.773429e-04 6.169084e-02 -1.118782e-05 7.131807e-06
142            8.709780e-02 3.704573e-04 3.859629e-04 2.546853e-02 3.816409e-04 3.788299e-04 6.162927e-02 -1.118360e-05 7.132993e-06
143            8.702643e-02 3.717564e-04 3.873538e-04 2.545733e-02 3.829328e-04 3.802166e-04 6.156911e-02 -1.117646e-05 7.137154e-06
144            8.695673e-02 3.729323e-04 3.886320e-04 2.544640e-02 3.840985e-04 3.814872e-04 6.151033e-02 -1.116620e-05 7.144807e-06
145            8.688867e-02 3.739723e-04 3.897825e-04 2.543575e-02 3.851248e-04 3.826271e-04 6.145292e-02 -1.115259e-05 7.155374e-06
146            8.682225e-02 3.748627e-04 3.907920e-04 2.542539e-02 3.859981e-04 3.836227e-04 6.139686e-02 -1.113544e-05 7.169250e-06
147            8.675746e-02 3.755893e-04 3.916467e-04 2.541531e-02 3.867042e-04 3.844599e-04 6.134215e-02 -1.111489e-05 7.186800e-06
148            8.669428e-02 3.761374e-04 3.923328e-04 2.540552e-02 3.872285e-04 3.851251e-04 6.128876e-02 -1.109106e-05 7.207769e-06
149            8.663269e-02 3.764919e-04 3.928346e-04 2.539600e-02 3.875555e-04 3.856023e-04 6.123668e-02 -1.106364e-05 7.232359e-06
150            8.657267e-02 3.766388e-04 3.931370e-04 2.538677e-02 3.876712e-04 3.858764e-04 6.118590e-02 -1.103246e-05 7.260643e-06
151            8.651419e-02 3.765658e-04 3.932273e-04 2.537780e-02 3.875635e-04 3.859342e-04 6.113639e-02 -1.099766e-05 7.293020e-06
152            8.645724e-02 3.762630e-04 3.930940e-04 2.536911e-02 3.872222e-04 3.857647e-04 6.108813e-02 -1.095925e-05 7.329306e-06
153            8.640179e-02 3.757220e-04 3.927280e-04 2.536069e-02 3.866391e-04 3.853587e-04 6.104110e-02 -1.091710e-05 7.369335e-06
154            8.634781e-02 3.749359e-04 3.921225e-04 2.535253e-02 3.858072e-04 3.847095e-04 6.099529e-02 -1.087131e-05 7.413038e-06
155            8.629529e-02 3.738999e-04 3.912727e-04 2.534462e-02 3.847218e-04 3.838124e-04 6.095067e-02 -1.082198e-05 7.460314e-06
156            8.624420e-02 3.726116e-04 3.901763e-04 2.533697e-02 3.833807e-04 3.826653e-04 6.090722e-02 -1.076911e-05 7.510983e-06
157            8.619451e-02 3.710711e-04 3.888324e-04 2.532957e-02 3.817841e-04 3.812676e-04 6.086494e-02 -1.071302e-05 7.564802e-06
158            8.614619e-02 3.692806e-04 3.872421e-04 2.532240e-02 3.799346e-04 3.796206e-04 6.082379e-02 -1.065396e-05 7.621490e-06
159            8.609922e-02 3.672439e-04 3.854082e-04 2.531547e-02 3.778358e-04 3.777271e-04 6.078375e-02 -1.059199e-05 7.681013e-06
160            8.605356e-02 3.649653e-04 3.833358e-04 2.530876e-02 3.754928e-04 3.755927e-04 6.074480e-02 -1.052747e-05 7.743118e-06
161            8.600919e-02 3.624516e-04 3.810319e-04 2.530226e-02 3.729122e-04 3.732241e-04 6.070693e-02 -1.046060e-05 7.807775e-06
162            8.596607e-02 3.597111e-04 3.785042e-04 2.529597e-02 3.701028e-04 3.706294e-04 6.067010e-02 -1.039174e-05 7.874811e-06
163            8.592417e-02 3.567529e-04 3.757614e-04 2.528987e-02 3.670740e-04 3.678178e-04 6.063430e-02 -1.032106e-05 7.943565e-06
164            8.588346e-02 3.535880e-04 3.728139e-04 2.528396e-02 3.638368e-04 3.648000e-04 6.059950e-02 -1.024882e-05 8.013884e-06
165            8.584390e-02 3.502282e-04 3.696739e-04 2.527821e-02 3.604035e-04 3.615881e-04 6.056569e-02 -1.017530e-05 8.085763e-06
166            8.580546e-02 3.466866e-04 3.663535e-04 2.527263e-02 3.567874e-04 3.581945e-04 6.053283e-02 -1.010076e-05 8.158948e-06
167            8.576812e-02 3.429766e-04 3.628649e-04 2.526720e-02 3.530021e-04 3.546317e-04 6.050091e-02 -1.002554e-05 8.233194e-06
168            8.573183e-02 3.391114e-04 3.592208e-04 2.526192e-02 3.490612e-04 3.509128e-04 6.046991e-02 -9.949797e-06 8.308036e-06
169            8.569658e-02 3.351050e-04 3.554344e-04 2.525678e-02 3.449786e-04 3.470510e-04 6.043980e-02 -9.873598e-06 8.383391e-06
170            8.566234e-02 3.309710e-04 3.515183e-04 2.525178e-02 3.407680e-04 3.430595e-04 6.041056e-02 -9.797068e-06 8.458887e-06
171            8.562908e-02 3.267231e-04 3.474854e-04 2.524690e-02 3.364437e-04 3.389512e-04 6.038218e-02 -9.720598e-06 8.534190e-06
172            8.559677e-02 3.223749e-04 3.433484e-04 2.524214e-02 3.320193e-04 3.347391e-04 6.035463e-02 -9.644426e-06 8.609313e-06
173            8.556539e-02 3.179391e-04 3.391197e-04 2.523750e-02 3.275077e-04 3.304357e-04 6.032788e-02 -9.568676e-06 8.684041e-06
174            8.553490e-02 3.134278e-04 3.348110e-04 2.523297e-02 3.229213e-04 3.260527e-04 6.030193e-02 -9.493562e-06 8.758365e-06
175            8.550530e-02 3.088526e-04 3.304332e-04 2.522855e-02 3.182719e-04 3.216011e-04 6.027674e-02 -9.419291e-06 8.832133e-06
176            8.547654e-02 3.042243e-04 3.259962e-04 2.522424e-02 3.135701e-04 3.170910e-04 6.025230e-02 -9.345815e-06 8.905238e-06
177            8.544861e-02 2.995526e-04 3.215092e-04 2.522002e-02 3.088260e-04 3.125315e-04 6.022860e-02 -9.273376e-06 8.977650e-06
178            8.542148e-02 2.948464e-04 3.169799e-04 2.521589e-02 3.040482e-04 3.079307e-04 6.020560e-02 -9.201768e-06 9.049199e-06
179            8.539513e-02 2.901130e-04 3.124146e-04 2.521184e-02 2.992440e-04 3.032947e-04 6.018328e-02 -9.131045e-06 9.119847e-06
180            8.536952e-02 2.853581e-04 3.078180e-04 2.520788e-02 2.944194e-04 2.986285e-04 6.016164e-02 -9.061265e-06 9.189480e-06
181            8.534464e-02 2.805861e-04 3.031940e-04 2.520400e-02 2.895786e-04 2.939358e-04 6.014065e-02 -8.992471e-06 9.258195e-06
182            8.532047e-02 2.757996e-04 2.985449e-04 2.520018e-02 2.847243e-04 2.892189e-04 6.012029e-02 -8.924697e-06 9.326014e-06
183            8.529698e-02 2.710001e-04 2.938720e-04 2.519644e-02 2.798580e-04 2.844790e-04 6.010054e-02 -8.857931e-06 9.392917e-06
184            8.527415e-02 2.661879e-04 2.891750e-04 2.519276e-02 2.749801e-04 2.797161e-04 6.008139e-02 -8.792172e-06 9.458900e-06
185            8.525197e-02 2.613627e-04 2.844527e-04 2.518915e-02 2.700902e-04 2.749287e-04 6.006282e-02 -8.727540e-06 9.523972e-06
186            8.523041e-02 2.565231e-04 2.797030e-04 2.518560e-02 2.651872e-04 2.701149e-04 6.004481e-02 -8.664070e-06 9.588117e-06
187            8.520946e-02 2.516675e-04 2.749235e-04 2.518211e-02 2.602690e-04 2.652721e-04 6.002736e-02 -8.601539e-06 9.651357e-06
188            8.518911e-02 2.467930e-04 2.701114e-04 2.517868e-02 2.553330e-04 2.603977e-04 6.001043e-02 -8.539923e-06 9.713702e-06
189            8.516934e-02 2.418963e-04 2.652641e-04 2.517531e-02 2.503755e-04 2.554889e-04 5.999403e-02 -8.479200e-06 9.775167e-06
190            8.515013e-02 2.369728e-04 2.603784e-04 2.517201e-02 2.453922e-04 2.505426e-04 5.997812e-02 -8.419375e-06 9.835802e-06
191            8.513148e-02 2.320180e-04 2.554510e-04 2.516877e-02 2.403783e-04 2.455554e-04 5.996271e-02 -8.360389e-06 9.895565e-06
192            8.511337e-02 2.270264e-04 2.504781e-04 2.516560e-02 2.353286e-04 2.405238e-04 5.994777e-02 -8.302182e-06 9.954359e-06
193            8.509579e-02 2.219929e-04 2.454560e-04 2.516249e-02 2.302376e-04 2.354437e-04 5.993330e-02 -8.244757e-06 1.001230e-05
194            8.507873e-02 2.169123e-04 2.403808e-04 2.515946e-02 2.251004e-04 2.303114e-04 5.991927e-02 -8.188097e-06 1.006941e-05
195            8.506218e-02 2.117797e-04 2.352487e-04 2.515649e-02 2.199119e-04 2.251231e-04 5.990569e-02 -8.132198e-06 1.012569e-05
196            8.504613e-02 2.065907e-04 2.300565e-04 2.515361e-02 2.146678e-04 2.198753e-04 5.989253e-02 -8.077049e-06 1.018114e-05
197            8.503058e-02 2.013414e-04 2.248010e-04 2.515080e-02 2.093640e-04 2.145653e-04 5.987978e-02 -8.022653e-06 1.023576e-05
198            8.501550e-02 1.960283e-04 2.194800e-04 2.514807e-02 2.039973e-04 2.091905e-04 5.986743e-02 -7.969010e-06 1.028953e-05
199            8.500090e-02 1.906484e-04 2.140916e-04 2.514542e-02 1.985645e-04 2.037492e-04 5.985548e-02 -7.916134e-06 1.034245e-05
200            8.498677e-02 1.851994e-04 2.086344e-04 2.514286e-02 1.930635e-04 1.982399e-04 5.984391e-02 -7.864110e-06 1.039447e-05
201            8.497310e-02 1.796799e-04 2.031079e-04 2.514038e-02 1.874929e-04 1.926623e-04 5.983272e-02 -7.812956e-06 1.044556e-05
202            8.495988e-02 1.740899e-04 1.975127e-04 2.513800e-02 1.818526e-04 1.870170e-04 5.982188e-02 -7.762665e-06 1.049572e-05
203            8.494711e-02 1.684301e-04 1.918507e-04 2.513571e-02 1.761434e-04 1.813058e-04 5.981141e-02 -7.713284e-06 1.054489e-05
204            8.493478e-02 1.627025e-04 1.861245e-04 2.513351e-02 1.703674e-04 1.755315e-04 5.980127e-02 -7.664865e-06 1.059303e-05
205            8.492289e-02 1.569102e-04 1.803378e-04 2.513141e-02 1.645276e-04 1.696977e-04 5.979148e-02 -7.617469e-06 1.064008e-05
206            8.491142e-02 1.510574e-04 1.744953e-04 2.512941e-02 1.586285e-04 1.638093e-04 5.978201e-02 -7.571163e-06 1.068601e-05
207            8.490038e-02 1.451497e-04 1.686026e-04 2.512751e-02 1.526757e-04 1.578718e-04 5.977287e-02 -7.526017e-06 1.073073e-05
208            8.488975e-02 1.391937e-04 1.626664e-04 2.512571e-02 1.466758e-04 1.518922e-04 5.976403e-02 -7.482109e-06 1.077420e-05
209            8.487953e-02 1.331972e-04 1.566943e-04 2.512402e-02 1.406367e-04 1.458779e-04 5.975550e-02 -7.439512e-06 1.081635e-05
210            8.486971e-02 1.271688e-04 1.506946e-04 2.512243e-02 1.345672e-04 1.398375e-04 5.974727e-02 -7.398304e-06 1.085710e-05
211            8.486028e-02 1.211186e-04 1.446766e-04 2.512095e-02 1.284772e-04 1.337802e-04 5.973933e-02 -7.358563e-06 1.089640e-05
212            8.485125e-02 1.150571e-04 1.386504e-04 2.511957e-02 1.223775e-04 1.277162e-04 5.973167e-02 -7.320365e-06 1.093418e-05
213            8.484259e-02 1.089957e-04 1.326265e-04 2.511830e-02 1.162795e-04 1.216562e-04 5.972429e-02 -7.283786e-06 1.097037e-05
214            8.483430e-02 1.029464e-04 1.266163e-04 2.511712e-02 1.101953e-04 1.156114e-04 5.971718e-02 -7.248891e-06 1.100491e-05
215            8.482637e-02 9.692140e-05 1.206311e-04 2.511605e-02 1.041371e-04 1.095934e-04 5.971032e-02 -7.215742e-06 1.103773e-05
216            8.481880e-02 9.093317e-05 1.146829e-04 2.511507e-02 9.811756e-05 1.036141e-04 5.970373e-02 -7.184388e-06 1.106881e-05
217            8.481157e-02 8.499417e-05 1.087836e-04 2.511418e-02 9.214903e-05 9.768544e-05 5.969738e-02 -7.154854e-06 1.109811e-05
218            8.480467e-02 7.911832e-05 1.029464e-04 2.511339e-02 8.624553e-05 9.182080e-05 5.969128e-02 -7.127210e-06 1.112557e-05
219            8.479810e-02 7.331864e-05 9.718388e-05 2.511269e-02 8.042012e-05 8.603272e-05 5.968541e-02 -7.101485e-06 1.115116e-05
220            8.479185e-02 6.760723e-05 9.150764e-05 2.511208e-02 7.468493e-05 8.033280e-05 5.967977e-02 -7.077704e-06 1.117485e-05
221            8.478590e-02 6.199529e-05 8.592839e-05 2.511155e-02 6.905118e-05 7.473178e-05 5.967436e-02 -7.055886e-06 1.119662e-05
222            8.478026e-02 5.649328e-05 8.045613e-05 2.511110e-02 6.352931e-05 6.923967e-05 5.966916e-02 -7.036033e-06 1.121646e-05
223            8.477490e-02 5.111097e-05 7.510029e-05 2.511072e-02 5.812912e-05 6.386593e-05 5.966417e-02 -7.018144e-06 1.123436e-05