# Force       
# CofR        : (0.000000e+00 0.000000e+00 0.000000e+00)
#
# Time        	total_x total_y total_z	pressure_x pressure_y pressure_z	viscous_x viscous_y viscous_z
1              2.696630e-01 -4.554707e-04 -1.333788e-03 2.196186e-01 -4.544554e-04 -1.331484e-03 5.004432e-02 -1.015341e-06 -2.304244e-06
2              2.930766e-01 -4.715480e-04 -1.206940e-03 2.456401e-01 -4.721333e-04 -1.217786e-03 4.743645e-02 5.853178e-07 1.084634e-05
3              2.516870e-01 -3.838453e-04 -1.191933e-03 2.063199e-01 -3.853831e-04 -1.211046e-03 4.536714e-02 1.537835e-06 1.911266e-05
4              1.818785e-01 -2.660502e-04 -1.146080e-03 1.381667e-01 -2.676715e-04 -1.166998e-03 4.371187e-02 1.621291e-06 2.091710e-05
5              1.076866e-01 -1.519437e-04 -9.265695e-04 6.529969e-02 -1.529768e-04 -9.442695e-04 4.238691e-02 1.033166e-06 1.769991e-05
6              4.600098e-02 -2.524242e-05 -4.797388e-04 4.643972e-03 -2.522651e-05 -4.916120e-04 4.135701e-02 -1.590977e-08 1.187318e-05
7              5.520626e-03 9.255870e-05 1.096780e-04 -3.501114e-02 9.356357e-05 1.037014e-04 4.053176e-02 -1.004868e-06 5.976631e-06
8              -1.226265e-02 1.744079e-04 6.791148e-04 -5.211264e-02 1.761169e-04 6.773991e-04 3.985000e-02 -1.709048e-06 1.715748e-06
9              -1.100902e-02 2.360578e-04 1.054155e-03 -5.026839e-02 2.380812e-04 1.054603e-03 3.925937e-02 -2.023389e-06 -4.481390e-07
10             1.887637e-03 1.764672e-04 1.177882e-03 -3.680853e-02 1.785274e-04 1.178420e-03 3.869617e-02 -2.060249e-06 -5.374884e-07
11             1.987600e-02 6.649692e-05 1.004746e-03 -1.826167e-02 6.845605e-05 1.004053e-03 3.813768e-02 -1.959132e-06 6.932750e-07
12             3.732976e-02 -5.977707e-05 5.955041e-04 -2.579894e-04 -5.791394e-05 5.930998e-04 3.758775e-02 -1.863123e-06 2.404337e-06
13             5.072221e-02 -1.719353e-04 7.422122e-05 1.366931e-02 -1.700834e-04 7.034771e-05 3.705290e-02 -1.851930e-06 3.873512e-06
14             5.798608e-02 -2.567991e-04 -3.301572e-04 2.144349e-02 -2.548727e-04 -3.350180e-04 3.654258e-02 -1.926389e-06 4.860721e-06
15             6.045474e-02 -3.049189e-04 -6.694664e-04 2.438791e-02 -3.028843e-04 -6.747076e-04 3.606684e-02 -2.034673e-06 5.241175e-06
16             5.951235e-02 -3.058772e-04 -8.835240e-04 2.388174e-02 -3.037659e-04 -8.886328e-04 3.563061e-02 -2.111218e-06 5.108841e-06
17             5.644300e-02 -2.511629e-04 -9.179252e-04 2.120732e-02 -2.490492e-04 -9.226187e-04 3.523568e-02 -2.113757e-06 4.693439e-06
18             5.241547e-02 -1.571225e-04 -7.596446e-04 1.753617e-02 -1.550839e-04 -7.639085e-04 3.487931e-02 -2.038628e-06 4.263874e-06
19             4.808777e-02 -4.887071e-05 -3.534576e-04 1.353248e-02 -4.695186e-05 -3.576165e-04 3.455528e-02 -1.918858e-06 4.158952e-06
20             4.481071e-02 3.389143e-05 -2.645630e-05 1.055231e-02 3.568070e-05 -3.075279e-05 3.425840e-02 -1.789271e-06 4.296491e-06
21             4.247939e-02 8.060354e-05 2.617168e-04 8.496486e-03 8.229800e-05 2.570534e-04 3.398291e-02 -1.694465e-06 4.663456e-06
22             4.110310e-02 8.795576e-05 4.498635e-04 7.379479e-03 8.962721e-05 4.447195e-04 3.372362e-02 -1.671452e-06 5.143988e-06
23             4.047994e-02 5.830843e-05 5.149081e-04 7.001426e-03 6.003956e-05 5.092951e-04 3.347851e-02 -1.731131e-06 5.613002e-06
24             4.036937e-02 2.676990e-06 4.573844e-04 7.126467e-03 4.558302e-06 4.514486e-04 3.324291e-02 -1.881312e-06 5.935842e-06
25             4.055020e-02 -6.011955e-05 3.048079e-04 7.533890e-03 -5.802489e-05 2.987750e-04 3.301631e-02 -2.094656e-06 6.032891e-06
26             4.083431e-02 -1.112387e-04 1.047360e-04 8.038528e-03 -1.089122e-04 9.884322e-05 3.279578e-02 -2.326428e-06 5.892809e-06
27             4.114075e-02 -1.273918e-04 -1.382960e-04 8.559671e-03 -1.248698e-04 -1.437953e-04 3.258108e-02 -2.522087e-06 5.499339e-06
28             4.128111e-02 -1.297773e-04 -2.675276e-04 8.909164e-03 -1.271077e-04 -2.725566e-04 3.237195e-02 -2.669612e-06 5.029002e-06
29             4.133407e-02 -8.525305e-05 -3.209744e-04 9.165343e-03 -8.251874e-05 -3.255459e-04 3.216873e-02 -2.734312e-06 4.571517e-06
30             4.122065e-02 -5.323235e-05 -3.081021e-04 9.248983e-03 -5.048035e-05 -3.123006e-04 3.197167e-02 -2.751996e-06 4.198524e-06
31             4.101502e-02 -1.418971e-05 -2.348307e-04 9.234627e-03 -1.145470e-05 -2.387965e-04 3.178040e-02 -2.735004e-06 3.965862e-06
32             4.074923e-02 2.145634e-05 -1.252075e-04 9.154375e-03 2.415545e-05 -1.291001e-04 3.159486e-02 -2.699108e-06 3.892630e-06
33             4.045399e-02 4.588132e-05 -7.064407e-06 9.039279e-03 4.854708e-05 -1.102824e-05 3.141471e-02 -2.665761e-06 3.963837e-06
34             4.015311e-02 5.465232e-05 9.684096e-05 8.913573e-03 5.730471e-05 9.269957e-05 3.123954e-02 -2.652391e-06 4.141395e-06
35             3.986266e-02 4.688532e-05 1.651994e-04 8.793764e-03 4.955779e-05 1.608312e-04 3.106890e-02 -2.672473e-06 4.368240e-06
36             3.959275e-02 2.841983e-05 1.873747e-04 8.690473e-03 3.114671e-05 1.827927e-04 3.090228e-02 -2.726884e-06 4.581927e-06
37             3.934738e-02 7.358617e-06 1.686543e-04 8.608133e-03 1.016318e-05 1.639164e-04 3.073924e-02 -2.804559e-06 4.737863e-06
38             3.912521e-02 -1.018348e-05 1.231223e-04 8.545784e-03 -7.294025e-06 1.183084e-04 3.057942e-02 -2.889453e-06 4.813874e-06
39             3.892194e-02 -2.052562e-05 6.672579e-05 8.499421e-03 -1.755908e-05 6.191778e-05 3.042252e-02 -2.966543e-06 4.808013e-06
40             3.873252e-02 -2.206029e-05 1.362423e-05 8.464116e-03 -1.903559e-05 8.889059e-06 3.026841e-02 -3.024698e-06 4.735174e-06
41             3.855255e-02 -1.509563e-05 -2.565084e-05 8.435342e-03 -1.203558e-05 -3.027132e-05 3.011721e-02 -3.060045e-06 4.620478e-06
42             3.837820e-02 -1.773207e-06 -4.501651e-05 8.409718e-03 1.298695e-06 -4.950860e-05 2.996848e-02 -3.071902e-06 4.492091e-06
43             3.820694e-02 1.440135e-05 -4.354947e-05 8.385037e-03 1.746761e-05 -4.792477e-05 2.982191e-02 -3.066265e-06 4.375298e-06
44             3.803728e-02 2.977494e-05 -2.511167e-05 8.359873e-03 3.282550e-05 -2.940178e-05 2.967741e-02 -3.050560e-06 4.290118e-06
45             3.786837e-02 4.151863e-05 3.704814e-06 8.333425e-03 4.455216e-05 -5.395749e-07 2.953495e-02 -3.033521e-06 4.244389e-06
46             3.770018e-02 4.778087e-05 3.494672e-05 8.305685e-03 5.080399e-05 3.070883e-05 2.939450e-02 -3.023116e-06 4.237889e-06
47             3.753322e-02 4.840187e-05 6.054282e-05 8.277178e-03 5.142670e-05 5.628329e-05 2.925604e-02 -3.024838e-06 4.259530e-06
48             3.736814e-02 4.513452e-05 7.612685e-05 8.248253e-03 4.817568e-05 7.183263e-05 2.911989e-02 -3.041160e-06 4.294222e-06
49             3.720755e-02 4.019693e-05 8.148587e-05 8.220458e-03 4.326451e-05 7.715564e-05 2.898709e-02 -3.067573e-06 4.330227e-06
50             3.705161e-02 3.525883e-05 7.876176e-05 8.194284e-03 3.835841e-05 7.440304e-05 2.885733e-02 -3.099585e-06 4.358720e-06
51             3.690046e-02 3.177527e-05 7.098733e-05 8.170051e-03 3.490721e-05 6.661254e-05 2.873041e-02 -3.131942e-06 4.374793e-06
52             3.675380e-02 3.049012e-05 6.139421e-05 8.147576e-03 3.365017e-05 5.701602e-05 2.860622e-02 -3.160043e-06 4.378186e-06
53             3.661108e-02 3.160092e-05 5.263686e-05 8.126448e-03 3.478212e-05 4.826640e-05 2.848463e-02 -3.181200e-06 4.370458e-06
54             3.647158e-02 3.488802e-05 4.660936e-05 8.106236e-03 3.808224e-05 4.225438e-05 2.836534e-02 -3.194225e-06 4.354976e-06
55             3.633487e-02 3.965259e-05 4.449288e-05 8.086743e-03 4.285219e-05 4.015743e-05 2.824812e-02 -3.199601e-06 4.335459e-06
56             3.620081e-02 4.475952e-05 4.638539e-05 8.067976e-03 4.795842e-05 4.206914e-05 2.813283e-02 -3.198899e-06 4.316251e-06
57             3.606919e-02 4.919612e-05 5.115887e-05 8.049826e-03 5.239162e-05 4.685795e-05 2.801936e-02 -3.195496e-06 4.300923e-06
58             3.593960e-02 5.248372e-05 5.720869e-05 8.031995e-03 5.567570e-05 5.291804e-05 2.790761e-02 -3.191988e-06 4.290650e-06
59             3.581162e-02 5.458208e-05 6.316494e-05 8.014120e-03 5.777288e-05 5.888047e-05 2.779750e-02 -3.190792e-06 4.284477e-06
60             3.568492e-02 5.568924e-05 6.810574e-05 7.995933e-03 5.888156e-05 6.382406e-05 2.768899e-02 -3.192320e-06 4.281682e-06
61             3.555932e-02 5.611575e-05 7.155581e-05 7.977321e-03 5.931227e-05 6.727497e-05 2.758200e-02 -3.196526e-06 4.280840e-06
62             3.543484e-02 5.622495e-05 7.345768e-05 7.958343e-03 5.942752e-05 6.917740e-05 2.747649e-02 -3.202564e-06 4.280282e-06
63             3.531154e-02 5.636103e-05 7.408993e-05 7.939122e-03 5.957050e-05 6.981034e-05 2.737242e-02 -3.209467e-06 4.279587e-06
64             3.518955e-02 5.678871e-05 7.391899e-05 7.919806e-03 6.000503e-05 6.964051e-05 2.726974e-02 -3.216325e-06 4.278483e-06
65             3.506896e-02 5.765866e-05 7.345839e-05 7.900550e-03 6.088090e-05 6.918179e-05 2.716841e-02 -3.222238e-06 4.276603e-06
66             3.494995e-02 5.899089e-05 7.318343e-05 7.881561e-03 6.221780e-05 6.890923e-05 2.706838e-02 -3.226911e-06 4.274198e-06
67             3.483269e-02 6.066197e-05 7.342545e-05 7.863055e-03 6.389193e-05 6.915393e-05 2.696964e-02 -3.229962e-06 4.271525e-06
68             3.471724e-02 6.247783e-05 7.428450e-05 7.845109e-03 6.570889e-05 7.001540e-05 2.687214e-02 -3.231058e-06 4.269104e-06
69             3.460348e-02 6.426335e-05 7.565891e-05 7.827622e-03 6.749409e-05 7.139192e-05 2.677586e-02 -3.230739e-06 4.266986e-06
70             3.449121e-02 6.590595e-05 7.736063e-05 7.810423e-03 6.913565e-05 7.309515e-05 2.668079e-02 -3.229691e-06 4.265485e-06
71             3.438027e-02 6.734990e-05 7.918960e-05 7.793365e-03 7.057816e-05 7.492505e-05 2.658691e-02 -3.228260e-06 4.264541e-06
72             3.427058e-02 6.858623e-05 8.096954e-05 7.776379e-03 7.181313e-05 7.670553e-05 2.649420e-02 -3.226902e-06 4.264010e-06
73             3.416213e-02 6.964477e-05 8.257397e-05 7.759472e-03 7.287034e-05 7.831022e-05 2.640265e-02 -3.225568e-06 4.263749e-06
74             3.405494e-02 7.058224e-05 8.394068e-05 7.742688e-03 7.380657e-05 7.967695e-05 2.631225e-02 -3.224328e-06 4.263729e-06
75             3.394907e-02 7.146304e-05 8.506733e-05 7.726082e-03 7.468636e-05 8.080347e-05 2.622299e-02 -3.223316e-06 4.263852e-06
76             3.384456e-02 7.234394e-05 8.599502e-05 7.709707e-03 7.556606e-05 8.173110e-05 2.613485e-02 -3.222118e-06 4.263929e-06
77             3.374144e-02 7.326511e-05 8.679060e-05 7.693611e-03 7.648588e-05 8.252688e-05 2.604783e-02 -3.220778e-06 4.263717e-06
78             3.363974e-02 7.424166e-05 8.752795e-05 7.677836e-03 7.746085e-05 8.326453e-05 2.596190e-02 -3.219189e-06 4.263425e-06
79             3.353949e-02 7.526496e-05 8.827153e-05 7.662421e-03 7.848233e-05 8.400850e-05 2.587706e-02 -3.217368e-06 4.263030e-06
80             3.344068e-02 7.631209e-05 8.906502e-05 7.647376e-03 7.952740e-05 8.480259e-05 2.579331e-02 -3.215314e-06 4.262423e-06
81             3.334329e-02 7.735445e-05 8.992378e-05 7.632676e-03 8.056747e-05 8.566193e-05 2.571062e-02 -3.213016e-06 4.261844e-06
82             3.324727e-02 7.836897e-05 9.084003e-05 7.618277e-03 8.157954e-05 8.657866e-05 2.562899e-02 -3.210568e-06 4.261371e-06
83             3.315255e-02 7.934142e-05 9.179087e-05 7.604134e-03 8.254936e-05 8.752984e-05 2.554841e-02 -3.207943e-06 4.261034e-06
84             3.305909e-02 8.026885e-05 9.275047e-05 7.590212e-03 8.347407e-05 8.848961e-05 2.546888e-02 -3.205216e-06 4.260864e-06
85             3.296688e-02 8.115401e-05 9.369197e-05 7.576504e-03 8.435644e-05 8.943121e-05 2.539038e-02 -3.202431e-06 4.260760e-06
86             3.287592e-02 8.200409e-05 9.459587e-05 7.563016e-03 8.520387e-05 9.033508e-05 2.531291e-02 -3.199778e-06 4.260792e-06
87             3.278622e-02 8.282604e-05 9.544889e-05 7.549765e-03 8.602317e-05 9.118806e-05 2.523646e-02 -3.197129e-06 4.260828e-06
88             3.269779e-02 8.362605e-05 9.624693e-05 7.536766e-03 8.682053e-05 9.198615e-05 2.516103e-02 -3.194478e-06 4.260784e-06
89             3.261064e-02 8.440967e-05 9.699470e-05 7.524027e-03 8.760130e-05 9.273425e-05 2.508661e-02 -3.191630e-06 4.260444e-06
90             3.252477e-02 8.517889e-05 9.770165e-05 7.511555e-03 8.836781e-05 9.344162e-05 2.501321e-02 -3.188913e-06 4.260026e-06
91             3.244017e-02 8.593175e-05 9.837867e-05 7.499358e-03 8.911814e-05 9.411920e-05 2.494081e-02 -3.186390e-06 4.259468e-06
92             3.235686e-02 8.666385e-05 9.903549e-05 7.487438e-03 8.984790e-05 9.477692e-05 2.486942e-02 -3.184051e-06 4.258568e-06
93             3.227483e-02 8.737127e-05 9.968005e-05 7.475792e-03 9.055322e-05 9.542260e-05 2.479904e-02 -3.181948e-06 4.257452e-06
94             3.219405e-02 8.805121e-05 1.003170e-04 7.464406e-03 9.123149e-05 9.606082e-05 2.472964e-02 -3.180279e-06 4.256136e-06
95             3.211450e-02 8.870346e-05 1.009475e-04 7.453258e-03 9.188226e-05 9.669276e-05 2.466125e-02 -3.178795e-06 4.254755e-06
96             3.203619e-02 8.932725e-05 1.015711e-04 7.442361e-03 9.250450e-05 9.731763e-05 2.459383e-02 -3.177257e-06 4.253498e-06
97             3.195908e-02 8.992544e-05 1.021835e-04 7.431711e-03 9.310116e-05 9.793152e-05 2.452737e-02 -3.175721e-06 4.251949e-06
98             3.188315e-02 9.050005e-05 1.027789e-04 7.421292e-03 9.367442e-05 9.852888e-05 2.446186e-02 -3.174373e-06 4.250036e-06
99             3.180838e-02 9.105316e-05 1.033532e-04 7.411091e-03 9.422635e-05 9.910520e-05 2.439729e-02 -3.173190e-06 4.247986e-06
100            3.173475e-02 9.158743e-05 1.039032e-04 7.401103e-03 9.475965e-05 9.965740e-05 2.433365e-02 -3.172216e-06 4.245832e-06
101            3.166226e-02 9.210685e-05 1.044288e-04 7.391325e-03 9.527822e-05 1.001852e-04 2.427093e-02 -3.171368e-06 4.243602e-06
102            3.159090e-02 9.261364e-05 1.049306e-04 7.381757e-03 9.578432e-05 1.006894e-04 2.420914e-02 -3.170681e-06 4.241243e-06
103            3.152067e-02 9.310814e-05 1.054103e-04 7.372401e-03 9.627823e-05 1.011716e-04 2.414826e-02 -3.170087e-06 4.238647e-06
104            3.145156e-02 9.358948e-05 1.058699e-04 7.363258e-03 9.675906e-05 1.016340e-04 2.408830e-02 -3.169586e-06 4.235918e-06
105            3.138357e-02 9.405595e-05 1.063119e-04 7.354328e-03 9.722517e-05 1.020789e-04 2.402925e-02 -3.169225e-06 4.232995e-06
106            3.131670e-02 9.450625e-05 1.067387e-04 7.345607e-03 9.767522e-05 1.025088e-04 2.397110e-02 -3.168967e-06 4.229942e-06
107            3.125094e-02 9.493945e-05 1.071520e-04 7.337093e-03 9.810826e-05 1.029251e-04 2.391385e-02 -3.168810e-06 4.226824e-06
108            3.118628e-02 9.535406e-05 1.075515e-04 7.328781e-03 9.852275e-05 1.033279e-04 2.385750e-02 -3.168684e-06 4.223657e-06
109            3.112271e-02 9.574912e-05 1.079363e-04 7.320665e-03 9.891776e-05 1.037160e-04 2.380205e-02 -3.168631e-06 4.220295e-06
110            3.106023e-02 9.612389e-05 1.083049e-04 7.312738e-03 9.929252e-05 1.040881e-04 2.374749e-02 -3.168631e-06 4.216815e-06
111            3.099881e-02 9.647819e-05 1.086559e-04 7.304995e-03 9.964684e-05 1.044425e-04 2.369381e-02 -3.168657e-06 4.213363e-06
112            3.093844e-02 9.681281e-05 1.089882e-04 7.297431e-03 9.998148e-05 1.047783e-04 2.364101e-02 -3.168667e-06 4.209911e-06
113            3.087845e-02 9.711340e-05 1.092790e-04 7.289799e-03 1.002822e-04 1.050724e-04 2.358865e-02 -3.168834e-06 4.206547e-06
114            3.081884e-02 9.737696e-05 1.095233e-04 7.282007e-03 1.005461e-04 1.053201e-04 2.353684e-02 -3.169145e-06 4.203230e-06
115            3.075973e-02 9.760562e-05 1.097269e-04 7.274079e-03 1.007751e-04 1.055270e-04 2.348565e-02 -3.169505e-06 4.199928e-06
116            3.070126e-02 9.780481e-05 1.099003e-04 7.266105e-03 1.009747e-04 1.057037e-04 2.343516e-02 -3.169926e-06 4.196538e-06
117            3.064360e-02 9.798198e-05 1.100550e-04 7.258200e-03 1.011523e-04 1.058619e-04 2.338540e-02 -3.170308e-06 4.193119e-06
118            3.058687e-02 9.814454e-05 1.102014e-04 7.250468e-03 1.013152e-04 1.060116e-04 2.333640e-02 -3.170625e-06 4.189747e-06
119            3.053116e-02 9.829900e-05 1.103465e-04 7.242984e-03 1.014698e-04 1.061600e-04 2.328818e-02 -3.170835e-06 4.186486e-06
120            3.047656e-02 9.844957e-05 1.104942e-04 7.235793e-03 1.016205e-04 1.063109e-04 2.324076e-02 -3.170964e-06 4.183312e-06
121            3.042307e-02 9.859839e-05 1.106449e-04 7.228910e-03 1.017693e-04 1.064646e-04 2.319416e-02 -3.170954e-06 4.180343e-06
122            3.037070e-02 9.874627e-05 1.107973e-04 7.222326e-03 1.019170e-04 1.066197e-04 2.314837e-02 -3.170770e-06 4.177582e-06
123            3.031943e-02 9.889302e-05 1.109496e-04 7.216020e-03 1.020635e-04 1.067745e-04 2.310341e-02 -3.170492e-06 4.175072e-06
124            3.026923e-02 9.903796e-05 1.110997e-04 7.209964e-03 1.022081e-04 1.069269e-04 2.305927e-02 -3.170091e-06 4.172758e-06
125            3.022009e-02 9.918083e-05 1.112469e-04 7.204128e-03 1.023503e-04 1.070763e-04 2.301596e-02 -3.169490e-06 4.170612e-06
126            3.017196e-02 9.932171e-05 1.113914e-04 7.198485e-03 1.024904e-04 1.072227e-04 2.297348e-02 -3.168673e-06 4.168715e-06
127            3.012483e-02 9.946176e-05 1.115341e-04 7.193012e-03 1.026294e-04 1.073670e-04 2.293182e-02 -3.167687e-06 4.167064e-06
128            3.007868e-02 9.960171e-05 1.116764e-04 7.187690e-03 1.027683e-04 1.075108e-04 2.289099e-02 -3.166587e-06 4.165631e-06
129            3.003348e-02 9.974263e-05 1.118199e-04 7.182508e-03 1.029079e-04 1.076555e-04 2.285097e-02 -3.165298e-06 4.164395e-06
130            2.998923e-02 9.988635e-05 1.119663e-04 7.177457e-03 1.030502e-04 1.078030e-04 2.281177e-02 -3.163848e-06 4.163302e-06
131            2.994591e-02 1.000350e-04 1.121178e-04 7.172532e-03 1.031972e-04 1.079554e-04 2.277338e-02 -3.162234e-06 4.162329e-06
132            2.990352e-02 1.001898e-04 1.122756e-04 7.167731e-03 1.033503e-04 1.081141e-04 2.273579e-02 -3.160501e-06 4.161488e-06
133            2.986205e-02 1.003522e-04 1.124418e-04 7.163053e-03 1.035108e-04 1.082810e-04 2.269900e-02 -3.158626e-06 4.160789e-06
134            2.982150e-02 1.005230e-04 1.126176e-04 7.158500e-03 1.036796e-04 1.084574e-04 2.266300e-02 -3.156612e-06 4.160220e-06
135            2.978185e-02 1.007031e-04 1.128041e-04 7.154071e-03 1.038576e-04 1.086443e-04 2.262778e-02 -3.154514e-06 4.159750e-06
136            2.974310e-02 1.008930e-04 1.130017e-04 7.149768e-03 1.040453e-04 1.088424e-04 2.259333e-02 -3.152391e-06 4.159383e-06
137            2.970524e-02 1.010929e-04 1.132109e-04 7.145590e-03 1.042432e-04 1.090517e-04 2.255965e-02 -3.150225e-06 4.159157e-06
138            2.966826e-02 1.013038e-04 1.134312e-04 7.141534e-03 1.044518e-04 1.092722e-04 2.252673e-02 -3.147936e-06 4.159057e-06
139            2.963215e-02 1.015257e-04 1.136624e-04 7.137599e-03 1.046712e-04 1.095033e-04 2.249455e-02 -3.145514e-06 4.159100e-06
140            2.959689e-02 1.017576e-04 1.139032e-04 7.133781e-03 1.049006e-04 1.097439e-04 2.246311e-02 -3.142942e-06 4.159304e-06
141            2.956248e-02 1.019983e-04 1.141523e-04 7.130077e-03 1.051385e-04 1.099926e-04 2.243240e-02 -3.140196e-06 4.159695e-06
142            2.952889e-02 1.022466e-04 1.144079e-04 7.126483e-03 1.053839e-04 1.102476e-04 2.240241e-02 -3.137244e-06 4.160308e-06
143            2.949612e-02 1.025013e-04 1.146685e-04 7.122994e-03 1.056354e-04 1.105074e-04 2.237313e-02 -3.134051e-06 4.161109e-06
144            2.946415e-02 1.027608e-04 1.149323e-04 7.119608e-03 1.058914e-04 1.107701e-04 2.234455e-02 -3.130560e-06 4.162214e-06
145            2.943297e-02 1.030233e-04 1.151980e-04 7.116319e-03 1.061500e-04 1.110343e-04 2.231665e-02 -3.126708e-06 4.163692e-06
146            2.940256e-02 1.032870e-04 1.154642e-04 7.113127e-03 1.064095e-04 1.112987e-04 2.228944e-02 -3.122435e-06 4.165554e-06
147            2.937291e-02 1.035503e-04 1.157297e-04 7.110026e-03 1.066680e-04 1.115618e-04 2.226288e-02 -3.117692e-06 4.167880e-06
148            2.934400e-02 1.038112e-04 1.159935e-04 7.107015e-03 1.069237e-04 1.118228e-04 2.223699e-02 -3.112431e-06 4.170731e-06
149            2.931583e-02 1.040679e-04 1.162546e-04 7.104092e-03 1.071745e-04 1.120804e-04 2.221173e-02 -3.106598e-06 4.174163e-06
150            2.928837e-02 1.043181e-04 1.165114e-04 7.101253e-03 1.074183e-04 1.123332e-04 2.218711e-02 -3.100145e-06 4.178219e-06
151            2.926161e-02 1.045602e-04 1.167622e-04 7.098498e-03 1.076532e-04 1.125792e-04 2.216311e-02 -3.093021e-06 4.182957e-06
152            2.923555e-02 1.047924e-04 1.170048e-04 7.095824e-03 1.078775e-04 1.128164e-04 2.213972e-02 -3.085183e-06 4.188423e-06
153            2.921016e-02 1.050130e-04 1.172371e-04 7.093228e-03 1.080896e-04 1.130425e-04 2.211693e-02 -3.076590e-06 4.194655e-06
154            2.918543e-02 1.052206e-04 1.174574e-04 7.090709e-03 1.082878e-04 1.132557e-04 2.209472e-02 -3.067212e-06 4.201685e-06
155            2.916135e-02 1.054137e-04 1.176638e-04 7.088264e-03 1.084707e-04 1.134542e-04 2.207309e-02 -3.057023e-06 4.209525e-06
156            2.913790e-02 1.055907e-04 1.178547e-04 7.085890e-03 1.086367e-04 1.136365e-04 2.205201e-02 -3.045998e-06 4.218189e-06
157            2.911508e-02 1.057500e-04 1.180289e-04 7.083585e-03 1.087841e-04 1.138012e-04 2.203149e-02 -3.034120e-06 4.227716e-06
158            2.909285e-02 1.058902e-04 1.181849e-04 7.081346e-03 1.089116e-04 1.139468e-04 2.201151e-02 -3.021376e-06 4.238121e-06
159            2.907122e-02 1.060103e-04 1.183216e-04 7.079170e-03 1.090181e-04 1.140722e-04 2.199205e-02 -3.007759e-06 4.249416e-06
160            2.905016e-02 1.061094e-04 1.184381e-04 7.077055e-03 1.091026e-04 1.141765e-04 2.197311e-02 -2.993264e-06 4.261605e-06
161            2.902967e-02 1.061867e-04 1.185334e-04 7.074998e-03 1.091645e-04 1.142587e-04 2.195467e-02 -2.977892e-06 4.274687e-06
162            2.900972e-02 1.062414e-04 1.186066e-04 7.072995e-03 1.092030e-04 1.143180e-04 2.193673e-02 -2.961643e-06 4.288661e-06
163            2.899031e-02 1.062725e-04 1.186568e-04 7.071046e-03 1.092170e-04 1.143532e-04 2.191926e-02 -2.944525e-06 4.303522e-06
164            2.897142e-02 1.062792e-04 1.186828e-04 7.069148e-03 1.092057e-04 1.143635e-04 2.190227e-02 -2.926550e-06 4.319261e-06
165            2.895303e-02 1.062606e-04 1.186839e-04 7.067300e-03 1.091683e-04 1.143481e-04 2.188573e-02 -2.907734e-06 4.335866e-06
166            2.893514e-02 1.062161e-04 1.186595e-04 7.065500e-03 1.091042e-04 1.143062e-04 2.186964e-02 -2.888092e-06 4.353321e-06
167            2.891774e-02 1.061449e-04 1.186089e-04 7.063748e-03 1.090126e-04 1.142372e-04 2.185399e-02 -2.867639e-06 4.371609e-06
168            2.890080e-02 1.060463e-04 1.185312e-04 7.062042e-03 1.088927e-04 1.141405e-04 2.183876e-02 -2.846408e-06 4.390708e-06
169            2.888433e-02 1.059194e-04 1.184259e-04 7.060382e-03 1.087439e-04 1.140153e-04 2.182395e-02 -2.824429e-06 4.410584e-06
170            2.886830e-02 1.057636e-04 1.182920e-04 7.058766e-03 1.085653e-04 1.138608e-04 2.180954e-02 -2.801731e-06 4.431204e-06
171            2.885271e-02 1.055782e-04 1.181288e-04 7.057194e-03 1.083566e-04 1.136763e-04 2.179552e-02 -2.778347e-06 4.452534e-06
172            2.883755e-02 1.053630e-04 1.179359e-04 7.055665e-03 1.081173e-04 1.134614e-04 2.178189e-02 -2.754310e-06 4.474538e-06
173            2.882280e-02 1.051173e-04 1.177129e-04 7.054177e-03 1.078470e-04 1.132157e-04 2.176862e-02 -2.729653e-06 4.497183e-06
174            2.880845e-02 1.048410e-04 1.174592e-04 7.052730e-03 1.075454e-04 1.129387e-04 2.175572e-02 -2.704409e-06 4.520433e-06
175            2.879449e-02 1.045334e-04 1.171744e-04 7.051322e-03 1.072120e-04 1.126301e-04 2.174317e-02 -2.678612e-06 4.544257e-06
176            2.878091e-02 1.041941e-04 1.168581e-04 7.049953e-03 1.068464e-04 1.122895e-04 2.173096e-02 -2.652300e-06 4.568623e-06
177            2.876770e-02 1.038225e-04 1.165098e-04 7.048620e-03 1.064480e-04 1.119163e-04 2.171908e-02 -2.625507e-06 4.593502e-06
178            2.875485e-02 1.034177e-04 1.161287e-04 7.047322e-03 1.060160e-04 1.115099e-04 2.170752e-02 -2.598264e-06 4.618854e-06
179            2.874234e-02 1.029793e-04 1.157143e-04 7.046060e-03 1.055499e-04 1.110697e-04 2.169628e-02 -2.570606e-06 4.644642e-06
180            2.873018e-02 1.025067e-04 1.152660e-04 7.044831e-03 1.050492e-04 1.105952e-04 2.168535e-02 -2.542568e-06 4.670837e-06
181            2.871835e-02 1.019995e-04 1.147832e-04 7.043635e-03 1.045137e-04 1.100858e-04 2.167471e-02 -2.514186e-06 4.697407e-06
182            2.870683e-02 1.014575e-04 1.142654e-04 7.042470e-03 1.039430e-04 1.095410e-04 2.166436e-02 -2.485489e-06 4.724323e-06
183            2.869564e-02 1.008800e-04 1.137119e-04 7.041337e-03 1.033365e-04 1.089603e-04 2.165430e-02 -2.456508e-06 4.751553e-06
184            2.868474e-02 1.002666e-04 1.131223e-04 7.040235e-03 1.026938e-04 1.083433e-04 2.164451e-02 -2.427267e-06 4.779066e-06
185            2.867414e-02 9.961661e-05 1.124963e-04 7.039163e-03 1.020144e-04 1.076895e-04 2.163498e-02 -2.397793e-06 4.806837e-06
186            2.866384e-02 9.892962e-05 1.118338e-04 7.038121e-03 1.012977e-04 1.069989e-04 2.162572e-02 -2.368113e-06 4.834845e-06
187            2.865381e-02 9.820496e-05 1.111341e-04 7.037108e-03 1.005432e-04 1.062710e-04 2.161670e-02 -2.338253e-06 4.863063e-06
188            2.864406e-02 9.744203e-05 1.103968e-04 7.036124e-03 9.975027e-05 1.055054e-04 2.160794e-02 -2.308235e-06 4.891465e-06
189            2.863457e-02 9.664028e-05 1.096214e-04 7.035168e-03 9.891836e-05 1.047013e-04 2.159941e-02 -2.278083e-06 4.920026e-06
190            2.862535e-02 9.579911e-05 1.088068e-04 7.034240e-03 9.804693e-05 1.038581e-04 2.159110e-02 -2.247821e-06 4.948718e-06
191            2.861636e-02 9.491802e-05 1.079526e-04 7.033339e-03 9.713550e-05 1.029750e-04 2.158302e-02 -2.217475e-06 4.977523e-06
192            2.860762e-02 9.399642e-05 1.070579e-04 7.032465e-03 9.618349e-05 1.020515e-04 2.157516e-02 -2.187071e-06 5.006417e-06
193            2.859911e-02 9.303385e-05 1.061223e-04 7.031617e-03 9.519048e-05 1.010869e-04 2.156750e-02 -2.156631e-06 5.035379e-06
194            2.859083e-02 9.202994e-05 1.051454e-04 7.030793e-03 9.415612e-05 1.000810e-04 2.156004e-02 -2.126178e-06 5.064384e-06
195            2.858277e-02 9.098429e-05 1.041268e-04 7.029994e-03 9.308003e-05 9.903340e-05 2.155277e-02 -2.095738e-06 5.093408e-06
196            2.857492e-02 8.989644e-05 1.030662e-04 7.029219e-03 9.196177e-05 9.794378e-05 2.154570e-02 -2.065332e-06 5.122428e-06
197            2.856728e-02 8.876593e-05 1.019632e-04 7.028468e-03 9.080092e-05 9.681181e-05 2.153881e-02 -2.034989e-06 5.151416e-06
198            2.855984e-02 8.759240e-05 1.008175e-04 7.027740e-03 8.959714e-05 9.563716e-05 2.153210e-02 -2.004735e-06 5.180342e-06
199            2.855260e-02 8.637550e-05 9.962874e-05 7.027035e-03 8.835010e-05 9.441956e-05 2.152557e-02 -1.974599e-06 5.209179e-06
200            2.854555e-02 8.511506e-05 9.839674e-05 7.026352e-03 8.705967e-05 9.315885e-05 2.151920e-02 -1.944610e-06 5.237895e-06
201            2.853870e-02 8.381107e-05 9.712155e-05 7.025692e-03 8.572587e-05 9.185509e-05 2.151301e-02 -1.914800e-06 5.266458e-06
202            2.853203e-02 8.246354e-05 9.580325e-05 7.025054e-03 8.434874e-05 9.050841e-05 2.150698e-02 -1.885203e-06 5.294837e-06
203            2.852555e-02 8.107247e-05 9.444193e-05 7.024439e-03 8.292832e-05 8.911893e-05 2.150111e-02 -1.855852e-06 5.322997e-06
204            2.851924e-02 7.963783e-05 9.303763e-05 7.023847e-03 8.146461e-05 8.768672e-05 2.149539e-02 -1.826783e-06 5.350906e-06
205            2.851311e-02 7.815986e-05 9.159039e-05 7.023278e-03 7.995790e-05 8.621187e-05 2.148983e-02 -1.798036e-06 5.378526e-06
206            2.850715e-02 7.663916e-05 9.010048e-05 7.022733e-03 7.840881e-05 8.469467e-05 2.148442e-02 -1.769647e-06 5.405817e-06
207            2.850136e-02 7.507650e-05 8.856853e-05 7.022210e-03 7.681816e-05 8.313579e-05 2.147915e-02 -1.741658e-06 5.432739e-06
208            2.849574e-02 7.347283e-05 8.699550e-05 7.021712e-03 7.518694e-05 8.153625e-05 2.147403e-02 -1.714107e-06 5.459251e-06
209            2.849028e-02 7.182939e-05 8.538260e-05 7.021237e-03 7.351642e-05 7.989729e-05 2.146905e-02 -1.687033e-06 5.485317e-06
210            2.848499e-02 7.014751e-05 8.373118e-05 7.020787e-03 7.180799e-05 7.822028e-05 2.146420e-02 -1.660475e-06 5.510900e-06
211            2.847986e-02 6.842874e-05 8.204271e-05 7.020360e-03 7.006322e-05 7.650674e-05 2.145950e-02 -1.634475e-06 5.535964e-06
212            2.847488e-02 6.667487e-05 8.031883e-05 7.019957e-03 6.828395e-05 7.475836e-05 2.145492e-02 -1.609074e-06 5.560471e-06
213            2.847005e-02 6.488788e-05 7.856129e-05 7.019578e-03 6.647218e-05 7.297690e-05 2.145048e-02 -1.584299e-06 5.584386e-06
214            2.846538e-02 6.306989e-05 7.677200e-05 7.019223e-03 6.463008e-05 7.116433e-05 2.144616e-02 -1.560185e-06 5.607672e-06
215            2.846086e-02 6.122318e-05 7.495320e-05 7.018892e-03 6.275995e-05 6.932290e-05 2.144197e-02 -1.536769e-06 5.630295e-06
216            2.845649e-02 5.935024e-05 7.310737e-05 7.018585e-03 6.086433e-05 6.745515e-05 2.143790e-02 -1.514083e-06 5.652220e-06
217            2.845225e-02 5.745382e-05 7.123718e-05 7.018301e-03 5.894598e-05 6.556376e-05 2.143395e-02 -1.492155e-06 5.673417e-06
218            2.844816e-02 5.553684e-05 6.934551e-05 7.018041e-03 5.700785e-05 6.365165e-05 2.143012e-02 -1.471010e-06 5.693858e-06
219            2.844421e-02 5.360241e-05 6.743537e-05 7.017805e-03 5.505309e-05 6.172185e-05 2.142641e-02 -1.450679e-06 5.713516e-06
220            2.844040e-02 5.165378e-05 6.550993e-05 7.017591e-03 5.308497e-05 5.977756e-05 2.142281e-02 -1.431188e-06 5.732366e-06
221            2.843671e-02 4.969528e-05 6.357347e-05 7.017401e-03 5.110784e-05 5.782308e-05 2.141931e-02 -1.412553e-06 5.750394e-06
222            2.843316e-02 4.773080e-05 6.162972e-05 7.017237e-03 4.912559e-05 5.586214e-05 2.141593e-02 -1.394791e-06 5.767582e-06
223            2.842974e-02 4.576376e-05 5.968209e-05 7.017096e-03 4.714168e-05 5.389818e-05 2.141265e-02 -1.377918e-06 5.783913e-06