/*--------------------------------*- C++ -*----------------------------------*\
| =========                 |                                                 |
| \\      /  F ield         | OpenFOAM: The Open Source CFD Toolbox           |
|  \\    /   O peration     | Version:  2512                                  |
|   \\  /    A nd           | Website:  www.openfoam.com                      |
|    \\/     M anipulation  |                                                 |
\*---------------------------------------------------------------------------*/
FoamFile
{
    version     2.0;
    format      ascii;
    arch        "LSB;label=32;scalar=64";
    class       volScalarField;
    location    "186";
    object      p;
}
// * * * * * * * * * * * * * * * * * * * * * * * * * * * * * * * * * * * * * //

dimensions      [0 2 -2 0 0 0 0];

internalField   nonuniform List<scalar> 
248793
(
1.74026e-05
1.73866e-05
1.73453e-05
1.7279e-05
1.71867e-05
1.70645e-05
1.69073e-05
1.67087e-05
1.64613e-05
1.61559e-05
1.57821e-05
1.53279e-05
1.478e-05
1.41239e-05
1.33446e-05
1.24268e-05
1.13566e-05
1.01222e-05
8.71615e-06
7.13688e-06
5.39147e-06
3.49763e-06
1.48568e-06
-6.00378e-07
-2.70308e-06
-4.75363e-06
-6.67605e-06
-8.39345e-06
-9.83574e-06
-1.09477e-05
-1.16957e-05
-1.20719e-05
-1.20945e-05
-1.18041e-05
-1.12572e-05
-1.05181e-05
-9.65164e-06
-8.71685e-06
-7.76362e-06
-6.83102e-06
-5.94731e-06
-5.13102e-06
-4.39254e-06
-3.73587e-06
-3.16029e-06
-2.66187e-06
-2.23465e-06
-1.8716e-06
-1.56531e-06
-1.30845e-06
-1.0941e-06
-9.15936e-07
-7.68289e-07
-6.46192e-07
-5.45345e-07
-4.62081e-07
-3.93296e-07
-3.36388e-07
-2.89192e-07
-2.49916e-07
-2.17084e-07
-1.89488e-07
-1.66141e-07
-1.46241e-07
-1.29135e-07
-1.14298e-07
-1.01302e-07
-8.98053e-08
-7.95289e-08
-7.02484e-08
-6.17816e-08
-5.39801e-08
-4.67215e-08
-3.99045e-08
-3.34432e-08
-2.72653e-08
-2.13091e-08
-1.55285e-08
-9.84417e-09
-4.67523e-09
1.74072e-05
1.73913e-05
1.73505e-05
1.72848e-05
1.71933e-05
1.70723e-05
1.69165e-05
1.67196e-05
1.64741e-05
1.6171e-05
1.57999e-05
1.53486e-05
1.48039e-05
1.41511e-05
1.3375e-05
1.24603e-05
1.13925e-05
1.01596e-05
8.75355e-06
7.17243e-06
5.42278e-06
3.5219e-06
1.4999e-06
-5.99098e-07
-2.71715e-06
-4.7845e-06
-6.72377e-06
-8.45642e-06
-9.91064e-06
-1.10298e-05
-1.17794e-05
-1.21516e-05
-1.21653e-05
-1.18627e-05
-1.13018e-05
-1.05487e-05
-9.66918e-06
-8.7233e-06
-7.76128e-06
-6.82221e-06
-5.93415e-06
-5.11531e-06
-4.37571e-06
-3.71898e-06
-3.1441e-06
-2.64685e-06
-2.22106e-06
-1.85955e-06
-1.5548e-06
-1.2994e-06
-1.08641e-06
-9.09454e-07
-7.62874e-07
-6.41699e-07
-5.41642e-07
-4.59045e-07
-3.90819e-07
-3.34376e-07
-2.87564e-07
-2.48602e-07
-2.16028e-07
-1.88641e-07
-1.65464e-07
-1.457e-07
-1.28705e-07
-1.13956e-07
-1.01031e-07
-8.95905e-08
-7.93592e-08
-7.01147e-08
-6.16768e-08
-5.38983e-08
-4.66583e-08
-3.98564e-08
-3.34074e-08
-2.72396e-08
-2.12917e-08
-1.55172e-08
-9.84028e-09
-4.65719e-09
1.74163e-05
1.74007e-05
1.73606e-05
1.72962e-05
1.72065e-05
1.70876e-05
1.69345e-05
1.6741e-05
1.64994e-05
1.62009e-05
1.5835e-05
1.53895e-05
1.4851e-05
1.42048e-05
1.34351e-05
1.25264e-05
1.14635e-05
1.02336e-05
8.82777e-06
7.2431e-06
5.48515e-06
3.57042e-06
1.5286e-06
-5.96043e-07
-2.74458e-06
-4.84535e-06
-6.81824e-06
-8.58135e-06
-1.00594e-05
-1.11929e-05
-1.19458e-05
-1.231e-05
-1.23062e-05
-1.19792e-05
-1.13905e-05
-1.06092e-05
-9.70385e-06
-8.73598e-06
-7.75653e-06
-6.80465e-06
-5.908e-06
-5.08413e-06
-4.34234e-06
-3.68553e-06
-3.11203e-06
-2.6171e-06
-2.19415e-06
-1.8357e-06
-1.53399e-06
-1.2815e-06
-1.07118e-06
-8.96628e-07
-7.52158e-07
-6.32811e-07
-5.34315e-07
-4.53038e-07
-3.85918e-07
-3.30394e-07
-2.84341e-07
-2.46003e-07
-2.13938e-07
-1.86965e-07
-1.64122e-07
-1.44629e-07
-1.27851e-07
-1.13276e-07
-1.00491e-07
-8.91628e-08
-7.90209e-08
-6.9848e-08
-6.14673e-08
-5.37349e-08
-4.65322e-08
-3.97604e-08
-3.33362e-08
-2.71887e-08
-2.12575e-08
-1.54962e-08
-9.82955e-09
-4.64511e-09
1.74297e-05
1.74145e-05
1.73756e-05
1.7313e-05
1.72258e-05
1.71101e-05
1.69611e-05
1.67724e-05
1.65367e-05
1.6245e-05
1.58867e-05
1.54498e-05
1.49206e-05
1.42841e-05
1.35241e-05
1.26243e-05
1.15687e-05
1.03434e-05
8.93811e-06
7.34839e-06
5.57833e-06
3.64322e-06
1.57206e-06
-5.90665e-07
-2.78462e-06
-4.93535e-06
-6.95861e-06
-8.76742e-06
-1.02813e-05
-1.14364e-05
-1.21941e-05
-1.25462e-05
-1.25159e-05
-1.21521e-05
-1.15216e-05
-1.06983e-05
-9.75445e-06
-8.75391e-06
-7.7487e-06
-6.77797e-06
-5.86874e-06
-5.03759e-06
-4.29269e-06
-3.63587e-06
-3.06451e-06
-2.57308e-06
-2.15439e-06
-1.80049e-06
-1.50332e-06
-1.25513e-06
-1.04877e-06
-8.77756e-07
-7.364e-07
-6.19746e-07
-5.23551e-07
-4.44218e-07
-3.78725e-07
-3.24554e-07
-2.79617e-07
-2.42195e-07
-2.10878e-07
-1.84513e-07
-1.62162e-07
-1.43065e-07
-1.26606e-07
-1.12288e-07
-9.97076e-08
-8.85428e-08
-7.85317e-08
-6.94632e-08
-6.11661e-08
-5.35008e-08
-4.63519e-08
-3.96238e-08
-3.32348e-08
-2.71161e-08
-2.12083e-08
-1.54657e-08
-9.81326e-09
-4.63476e-09
1.7447e-05
1.74324e-05
1.7395e-05
1.73348e-05
1.72508e-05
1.71393e-05
1.69955e-05
1.68132e-05
1.65851e-05
1.63021e-05
1.59539e-05
1.55282e-05
1.50112e-05
1.43874e-05
1.36401e-05
1.27521e-05
1.17064e-05
1.04874e-05
9.08311e-06
7.48712e-06
5.70157e-06
3.74005e-06
1.6306e-06
-5.82114e-07
-2.83596e-06
-5.0528e-06
-7.14291e-06
-9.01254e-06
-1.05742e-05
-1.1758e-05
-1.25219e-05
-1.28577e-05
-1.27918e-05
-1.2379e-05
-1.16929e-05
-1.08139e-05
-9.81928e-06
-8.77592e-06
-7.7371e-06
-6.74193e-06
-5.81653e-06
-4.97613e-06
-4.22741e-06
-3.57079e-06
-3.00239e-06
-2.51565e-06
-2.10259e-06
-1.75468e-06
-1.46345e-06
-1.22089e-06
-1.01968e-06
-8.53288e-07
-7.15981e-07
-6.02827e-07
-5.09617e-07
-4.32804e-07
-3.6942e-07
-3.17001e-07
-2.73508e-07
-2.37271e-07
-2.06921e-07
-1.81341e-07
-1.59626e-07
-1.41042e-07
-1.24995e-07
-1.11007e-07
-9.86913e-08
-8.77381e-08
-7.78963e-08
-6.89633e-08
-6.07748e-08
-5.31967e-08
-4.61185e-08
-3.94475e-08
-3.31053e-08
-2.70247e-08
-2.1148e-08
-1.54305e-08
-9.7974e-09
-4.62984e-09
1.74678e-05
1.74539e-05
1.74183e-05
1.7361e-05
1.72809e-05
1.71745e-05
1.7037e-05
1.68624e-05
1.66434e-05
1.63712e-05
1.60352e-05
1.56231e-05
1.51209e-05
1.45127e-05
1.3781e-05
1.29077e-05
1.18743e-05
1.06634e-05
9.26086e-06
7.65781e-06
5.8539e-06
3.8606e-06
1.70461e-06
-5.69279e-07
-2.89684e-06
-5.19546e-06
-7.3686e-06
-9.314e-06
-1.09352e-05
-1.21549e-05
-1.29264e-05
-1.32415e-05
-1.31307e-05
-1.26565e-05
-1.19012e-05
-1.09534e-05
-9.89628e-06
-8.80056e-06
-7.72093e-06
-6.69631e-06
-5.75161e-06
-4.90035e-06
-4.14735e-06
-3.49127e-06
-2.9267e-06
-2.44584e-06
-2.03975e-06
-1.69919e-06
-1.41522e-06
-1.17952e-06
-9.84586e-07
-8.23789e-07
-6.91386e-07
-5.82463e-07
-4.92859e-07
-4.19088e-07
-3.58247e-07
-3.07937e-07
-2.66185e-07
-2.31375e-07
-2.02187e-07
-1.77552e-07
-1.56601e-07
-1.38632e-07
-1.23079e-07
-1.09487e-07
-9.74887e-08
-8.67884e-08
-7.71484e-08
-6.83764e-08
-6.03164e-08
-5.28414e-08
-4.58459e-08
-3.92416e-08
-3.2953e-08
-2.69158e-08
-2.10739e-08
-1.53838e-08
-9.77175e-09
-4.61827e-09
1.74915e-05
1.74785e-05
1.74449e-05
1.73909e-05
1.73153e-05
1.72148e-05
1.70846e-05
1.69188e-05
1.67104e-05
1.64505e-05
1.61286e-05
1.57324e-05
1.52474e-05
1.46574e-05
1.39441e-05
1.30881e-05
1.20694e-05
1.08686e-05
9.46876e-06
7.85828e-06
6.03379e-06
4.00411e-06
1.79426e-06
-5.51043e-07
-2.96524e-06
-5.36054e-06
-7.63232e-06
-9.66807e-06
-1.13605e-05
-1.26229e-05
-1.34033e-05
-1.36931e-05
-1.35283e-05
-1.29805e-05
-1.21428e-05
-1.11134e-05
-9.9829e-06
-8.82613e-06
-7.69931e-06
-6.64094e-06
-5.6744e-06
-4.8111e-06
-4.05365e-06
-3.39863e-06
-2.83883e-06
-2.36502e-06
-1.96717e-06
-1.63523e-06
-1.35973e-06
-1.13199e-06
-9.44303e-07
-7.89967e-07
-6.63212e-07
-5.59154e-07
-4.73691e-07
-4.03408e-07
-3.45481e-07
-2.97587e-07
-2.57825e-07
-2.24644e-07
-1.96786e-07
-1.73229e-07
-1.53149e-07
-1.35882e-07
-1.20894e-07
-1.07754e-07
-9.61169e-08
-8.57057e-08
-7.62967e-08
-6.77093e-08
-5.97975e-08
-5.24415e-08
-4.55421e-08
-3.90157e-08
-3.27904e-08
-2.68044e-08
-2.10039e-08
-1.53466e-08
-9.75922e-09
-4.62071e-09
1.75177e-05
1.75055e-05
1.74743e-05
1.74239e-05
1.73533e-05
1.72592e-05
1.71371e-05
1.69812e-05
1.67844e-05
1.65383e-05
1.62321e-05
1.58536e-05
1.53879e-05
1.48184e-05
1.4126e-05
1.32898e-05
1.22882e-05
1.10993e-05
9.70348e-06
8.08567e-06
6.23907e-06
4.16938e-06
1.89945e-06
-5.26274e-07
-3.03883e-06
-5.54463e-06
-7.92979e-06
-1.00698e-05
-1.18447e-05
-1.31566e-05
-1.39468e-05
-1.42069e-05
-1.3979e-05
-1.33457e-05
-1.24128e-05
-1.12901e-05
-1.00763e-05
-8.85092e-06
-7.67152e-06
-6.57596e-06
-5.58569e-06
-4.70964e-06
-3.94785e-06
-3.29453e-06
-2.74048e-06
-2.27485e-06
-1.8864e-06
-1.56422e-06
-1.29822e-06
-1.07939e-06
-8.998e-07
-7.5265e-07
-6.32166e-07
-5.33499e-07
-4.52618e-07
-3.86189e-07
-3.31478e-07
-2.86247e-07
-2.48677e-07
-2.17291e-07
-1.90894e-07
-1.68521e-07
-1.49398e-07
-1.329e-07
-1.18528e-07
-1.05882e-07
-9.46386e-08
-8.45412e-08
-7.53817e-08
-6.69929e-08
-5.92392e-08
-5.20096e-08
-4.52114e-08
-3.87661e-08
-3.26058e-08
-2.66717e-08
-2.0912e-08
-1.52862e-08
-9.72269e-09
-4.60207e-09
1.75455e-05
1.75344e-05
1.75056e-05
1.74591e-05
1.73938e-05
1.73067e-05
1.71932e-05
1.70479e-05
1.68638e-05
1.66324e-05
1.63433e-05
1.59839e-05
1.55394e-05
1.49923e-05
1.43227e-05
1.35086e-05
1.25262e-05
1.13513e-05
9.96085e-06
8.33627e-06
6.46681e-06
4.35451e-06
2.01961e-06
-4.94063e-07
-3.11514e-06
-5.74378e-06
-8.25578e-06
-1.05131e-05
-1.23809e-05
-1.37485e-05
-1.45496e-05
-1.47754e-05
-1.44755e-05
-1.37454e-05
-1.27057e-05
-1.14792e-05
-1.01736e-05
-8.87325e-06
-7.63703e-06
-6.50178e-06
-5.4866e-06
-4.59757e-06
-3.83185e-06
-3.18101e-06
-2.63368e-06
-2.17727e-06
-1.79923e-06
-1.48775e-06
-1.23214e-06
-1.02297e-06
-8.52136e-07
-7.12736e-07
-5.98995e-07
-5.06116e-07
-4.30144e-07
-3.67839e-07
-3.16564e-07
-2.74177e-07
-2.38945e-07
-2.09471e-07
-1.8463e-07
-1.63519e-07
-1.45413e-07
-1.29735e-07
-1.1602e-07
-1.03899e-07
-9.30768e-08
-8.3315e-08
-7.44232e-08
-6.62483e-08
-5.86658e-08
-5.15737e-08
-4.48865e-08
-3.8531e-08
-3.24433e-08
-2.65675e-08
-2.08541e-08
-1.5264e-08
-9.72605e-09
-4.61881e-09
1.75744e-05
1.75642e-05
1.7538e-05
1.74956e-05
1.74359e-05
1.7356e-05
1.72516e-05
1.71173e-05
1.69465e-05
1.67306e-05
1.64595e-05
1.61204e-05
1.56982e-05
1.5175e-05
1.453e-05
1.37398e-05
1.27785e-05
1.16193e-05
1.02358e-05
8.60546e-06
6.71314e-06
4.55677e-06
2.15351e-06
-4.53844e-07
-3.19165e-06
-5.95352e-06
-8.60406e-06
-1.09902e-05
-1.29605e-05
-1.43894e-05
-1.52021e-05
-1.53892e-05
-1.50091e-05
-1.41721e-05
-1.30153e-05
-1.1676e-05
-1.02718e-05
-8.89167e-06
-7.59573e-06
-6.41931e-06
-5.37878e-06
-4.47701e-06
-3.708e-06
-3.0605e-06
-2.52079e-06
-2.0745e-06
-1.70771e-06
-1.40769e-06
-1.1631e-06
-9.64156e-07
-8.02534e-07
-6.71269e-07
-5.6459e-07
-4.77757e-07
-4.06904e-07
-3.48895e-07
-3.01192e-07
-2.61757e-07
-2.28949e-07
-2.01454e-07
-1.78222e-07
-1.58411e-07
-1.41354e-07
-1.26516e-07
-1.13474e-07
-1.01891e-07
-9.1495e-08
-8.20722e-08
-7.34492e-08
-6.54873e-08
-5.80739e-08
-5.11164e-08
-4.45364e-08
-3.82667e-08
-3.22472e-08
-2.64252e-08
-2.07534e-08
-1.51944e-08
-9.67939e-09
-4.591e-09
1.76036e-05
1.75944e-05
1.75708e-05
1.75325e-05
1.74785e-05
1.74059e-05
1.73107e-05
1.71878e-05
1.70305e-05
1.68306e-05
1.65778e-05
1.62596e-05
1.58605e-05
1.53622e-05
1.47429e-05
1.39779e-05
1.30392e-05
1.18974e-05
1.05224e-05
8.88761e-06
6.97315e-06
4.77245e-06
2.29909e-06
-4.05601e-07
-3.26596e-06
-6.16895e-06
-8.96734e-06
-1.14918e-05
-1.35725e-05
-1.50676e-05
-1.58923e-05
-1.60369e-05
-1.55695e-05
-1.46168e-05
-1.33347e-05
-1.18757e-05
-1.03679e-05
-8.90513e-06
-7.548e-06
-6.33e-06
-5.2644e-06
-4.35056e-06
-3.57907e-06
-2.93576e-06
-2.40448e-06
-1.969e-06
-1.61406e-06
-1.32597e-06
-1.09279e-06
-9.0437e-07
-7.52199e-07
-6.2925e-07
-5.2977e-07
-4.49089e-07
-3.83435e-07
-3.29779e-07
-2.85694e-07
-2.49245e-07
-2.18886e-07
-1.93391e-07
-1.71783e-07
-1.53286e-07
-1.37287e-07
-1.23299e-07
-1.10938e-07
-9.98982e-08
-8.99365e-08
-8.08591e-08
-7.25111e-08
-6.47682e-08
-5.75297e-08
-5.07124e-08
-4.42454e-08
-3.80666e-08
-3.21203e-08
-2.63565e-08
-2.07298e-08
-1.52043e-08
-9.71092e-09
-4.62921e-09
1.76322e-05
1.76241e-05
1.7603e-05
1.75688e-05
1.75205e-05
1.74552e-05
1.73692e-05
1.72575e-05
1.71137e-05
1.69297e-05
1.66954e-05
1.63982e-05
1.60224e-05
1.55492e-05
1.49562e-05
1.42171e-05
1.33021e-05
1.21788e-05
1.08139e-05
9.17606e-06
7.24085e-06
4.99675e-06
2.45331e-06
-3.50027e-07
-3.33597e-06
-6.3849e-06
-9.3374e-06
-1.20069e-05
-1.42039e-05
-1.57689e-05
-1.66058e-05
-1.67048e-05
-1.61443e-05
-1.50696e-05
-1.36562e-05
-1.20734e-05
-1.04596e-05
-8.91309e-06
-7.49484e-06
-6.23595e-06
-5.14624e-06
-4.22133e-06
-3.44832e-06
-2.80998e-06
-2.28774e-06
-1.86351e-06
-1.52072e-06
-1.24476e-06
-1.0231e-06
-8.45246e-07
-7.02529e-07
-5.8787e-07
-4.95548e-07
-4.20968e-07
-3.6046e-07
-3.11104e-07
-2.70585e-07
-2.37073e-07
-2.0912e-07
-1.85583e-07
-1.65562e-07
-1.48345e-07
-1.33373e-07
-1.20208e-07
-1.08502e-07
-9.7983e-08
-8.8434e-08
-7.96828e-08
-7.1592e-08
-6.40521e-08
-5.69739e-08
-5.02837e-08
-4.39175e-08
-3.7819e-08
-3.19361e-08
-2.62217e-08
-2.06324e-08
-1.51337e-08
-9.65932e-09
-4.59473e-09
1.76597e-05
1.76525e-05
1.76339e-05
1.76037e-05
1.75608e-05
1.75026e-05
1.74255e-05
1.73246e-05
1.71939e-05
1.70255e-05
1.68092e-05
1.65324e-05
1.61796e-05
1.57313e-05
1.51643e-05
1.44511e-05
1.35601e-05
1.24562e-05
1.11024e-05
9.46323e-06
7.50919e-06
5.22372e-06
2.61207e-06
-2.8867e-07
-3.4e-06
-6.59604e-06
-9.70514e-06
-1.25231e-05
-1.48397e-05
-1.64765e-05
-1.73255e-05
-1.73767e-05
-1.67198e-05
-1.55194e-05
-1.3972e-05
-1.22642e-05
-1.05446e-05
-8.91567e-06
-7.43795e-06
-6.13989e-06
-5.02763e-06
-4.09293e-06
-3.31931e-06
-2.68655e-06
-2.17367e-06
-1.76082e-06
-1.43014e-06
-1.16615e-06
-9.55794e-07
-7.88262e-07
-6.54741e-07
-5.48121e-07
-4.62722e-07
-3.94029e-07
-3.38477e-07
-2.93257e-07
-2.56164e-07
-2.25471e-07
-1.99824e-07
-1.78165e-07
-1.59664e-07
-1.43674e-07
-1.29688e-07
-1.17312e-07
-1.06237e-07
-9.62198e-08
-8.70695e-08
-7.86344e-08
-7.0794e-08
-6.34527e-08
-5.65324e-08
-4.99681e-08
-4.37028e-08
-3.76849e-08
-3.18664e-08
-2.62023e-08
-2.06509e-08
-1.51786e-08
-9.71826e-09
-4.65138e-09
1.76852e-05
1.7679e-05
1.76627e-05
1.76362e-05
1.75984e-05
1.75468e-05
1.74781e-05
1.73875e-05
1.72692e-05
1.71154e-05
1.69162e-05
1.66589e-05
1.63279e-05
1.59035e-05
1.53616e-05
1.46737e-05
1.38063e-05
1.27217e-05
1.13798e-05
9.74073e-06
7.77016e-06
5.4464e-06
2.77021e-06
-2.24007e-07
-3.457e-06
-6.79714e-06
-1.00609e-05
-1.30264e-05
-1.54625e-05
-1.71711e-05
-1.80321e-05
-1.80348e-05
-1.72806e-05
-1.59544e-05
-1.42743e-05
-1.24438e-05
-1.06216e-05
-8.91371e-06
-7.37975e-06
-6.04522e-06
-4.91246e-06
-3.96938e-06
-3.196e-06
-2.56918e-06
-2.06568e-06
-1.66396e-06
-1.34498e-06
-1.09247e-06
-8.92876e-07
-7.3513e-07
-6.10294e-07
-5.11242e-07
-4.3234e-07
-3.69159e-07
-3.18235e-07
-2.76867e-07
-2.42957e-07
-2.14876e-07
-1.9136e-07
-1.7143e-07
-1.54325e-07
-1.39456e-07
-1.26366e-07
-1.14704e-07
-1.04195e-07
-9.46255e-08
-8.58277e-08
-7.76693e-08
-7.00458e-08
-6.28742e-08
-5.60872e-08
-4.9628e-08
-4.34456e-08
-3.74933e-08
-3.1726e-08
-2.61013e-08
-2.05789e-08
-1.51264e-08
-9.6786e-09
-4.62326e-09
1.77082e-05
1.77027e-05
1.76886e-05
1.76654e-05
1.76323e-05
1.75868e-05
1.75256e-05
1.74444e-05
1.73374e-05
1.7197e-05
1.70134e-05
1.67742e-05
1.64633e-05
1.6061e-05
1.55425e-05
1.48783e-05
1.40332e-05
1.29674e-05
1.16374e-05
9.99967e-06
8.01505e-06
5.65695e-06
2.92162e-06
-1.59419e-07
-3.50663e-06
-6.98325e-06
-1.03946e-05
-1.35019e-05
-1.60535e-05
-1.78317e-05
-1.8704e-05
-1.86591e-05
-1.78103e-05
-1.63624e-05
-1.45551e-05
-1.26083e-05
-1.06899e-05
-8.90873e-06
-7.32323e-06
-5.95577e-06
-4.80493e-06
-3.85489e-06
-3.08237e-06
-2.46151e-06
-1.96699e-06
-1.57573e-06
-1.26762e-06
-1.0257e-06
-8.35999e-07
-6.87199e-07
-5.70274e-07
-4.78097e-07
-4.05083e-07
-3.46886e-07
-3.00139e-07
-2.62243e-07
-2.31198e-07
-2.05465e-07
-1.83863e-07
-1.65485e-07
-1.49632e-07
-1.35767e-07
-1.23481e-07
-1.12458e-07
-1.02457e-07
-9.32892e-08
-8.48082e-08
-7.68988e-08
-6.94707e-08
-6.24527e-08
-5.57866e-08
-4.94229e-08
-4.33162e-08
-3.74236e-08
-3.17032e-08
-2.61144e-08
-2.06178e-08
-1.51816e-08
-9.7395e-09
-4.67636e-09
1.77278e-05
1.77231e-05
1.77109e-05
1.76907e-05
1.76616e-05
1.76213e-05
1.75668e-05
1.74938e-05
1.73967e-05
1.72681e-05
1.70984e-05
1.6875e-05
1.65819e-05
1.61992e-05
1.57017e-05
1.50587e-05
1.42339e-05
1.31852e-05
1.18667e-05
1.0231e-05
8.23484e-06
5.84704e-06
3.05953e-06
-9.9039e-08
-3.54923e-06
-7.14995e-06
-1.06966e-05
-1.39346e-05
-1.6593e-05
-1.84359e-05
-1.93185e-05
-1.9229e-05
-1.82919e-05
-1.67314e-05
-1.48072e-05
-1.27545e-05
-1.07494e-05
-8.9029e-06
-7.27194e-06
-5.87581e-06
-4.70954e-06
-3.75389e-06
-2.98258e-06
-2.36734e-06
-1.88098e-06
-1.49909e-06
-1.20064e-06
-9.68067e-07
-7.87045e-07
-6.4607e-07
-5.36043e-07
-4.4984e-07
-3.81928e-07
-3.28037e-07
-2.84887e-07
-2.49972e-07
-2.21377e-07
-1.97647e-07
-1.7767e-07
-1.60604e-07
-1.45802e-07
-1.32777e-07
-1.21157e-07
-1.10661e-07
-1.01074e-07
-9.22309e-08
-8.40025e-08
-7.62889e-08
-6.90123e-08
-6.21112e-08
-5.55357e-08
-4.92422e-08
-4.31902e-08
-3.73402e-08
-3.16524e-08
-2.6088e-08
-2.06084e-08
-1.51822e-08
-9.7439e-09
-4.68095e-09
1.77438e-05
1.77397e-05
1.77289e-05
1.77112e-05
1.76854e-05
1.76496e-05
1.76006e-05
1.75344e-05
1.74456e-05
1.73268e-05
1.71685e-05
1.69584e-05
1.66803e-05
1.63141e-05
1.58341e-05
1.52092e-05
1.44016e-05
1.33679e-05
1.20594e-05
1.0426e-05
8.42068e-06
6.00829e-06
3.17694e-06
-4.74543e-08
-3.58578e-06
-7.29344e-06
-1.09573e-05
-1.43094e-05
-1.70615e-05
-1.89611e-05
-1.98528e-05
-1.97238e-05
-1.8709e-05
-1.70498e-05
-1.50239e-05
-1.28798e-05
-1.08007e-05
-8.89873e-06
-7.22955e-06
-5.80953e-06
-4.63057e-06
-3.67046e-06
-2.90037e-06
-2.28995e-06
-1.81048e-06
-1.43643e-06
-1.14601e-06
-9.21184e-07
-7.47326e-07
-6.12788e-07
-5.08417e-07
-4.27099e-07
-3.63347e-07
-3.12958e-07
-2.72727e-07
-2.40223e-07
-2.13606e-07
-1.91486e-07
-1.72813e-07
-1.56794e-07
-1.42831e-07
-1.30472e-07
-1.19378e-07
-1.09296e-07
-1.00033e-07
-9.1442e-08
-8.34089e-08
-7.58459e-08
-6.86848e-08
-6.18723e-08
-5.53648e-08
-4.91238e-08
-4.31123e-08
-3.72934e-08
-3.16294e-08
-2.60823e-08
-2.06143e-08
-1.51942e-08
-9.75622e-09
-4.68983e-09
1.77555e-05
1.77519e-05
1.77423e-05
1.77264e-05
1.77032e-05
1.76707e-05
1.7626e-05
1.75651e-05
1.74825e-05
1.73713e-05
1.72219e-05
1.70219e-05
1.67554e-05
1.6402e-05
1.59357e-05
1.53248e-05
1.45308e-05
1.35087e-05
1.22082e-05
1.05768e-05
8.56448e-06
6.13294e-06
3.26715e-06
-9.26779e-09
-3.61763e-06
-7.41072e-06
-1.11688e-05
-1.46127e-05
-1.74407e-05
-1.93864e-05
-2.02854e-05
-2.01242e-05
-1.90463e-05
-1.73072e-05
-1.51995e-05
-1.29825e-05
-1.08445e-05
-8.89889e-06
-7.19969e-06
-5.76098e-06
-4.5721e-06
-3.60848e-06
-2.83927e-06
-2.23251e-06
-1.75826e-06
-1.39015e-06
-1.10581e-06
-8.86825e-07
-7.18356e-07
-5.88646e-07
-4.88504e-07
-4.10827e-07
-3.50164e-07
-3.02364e-07
-2.64281e-07
-2.33543e-07
-2.08365e-07
-1.87409e-07
-1.69671e-07
-1.54398e-07
-1.41024e-07
-1.29127e-07
-1.18393e-07
-1.08589e-07
-9.95385e-08
-9.11091e-08
-8.31976e-08
-7.57249e-08
-6.86301e-08
-6.18658e-08
-5.53932e-08
-4.91771e-08
-4.31834e-08
-3.73769e-08
-3.17211e-08
-2.61787e-08
-2.07124e-08
-1.52903e-08
-9.84481e-09
-4.76011e-09
1.77627e-05
1.77594e-05
1.77506e-05
1.77359e-05
1.77145e-05
1.76842e-05
1.76423e-05
1.75848e-05
1.75065e-05
1.74003e-05
1.72568e-05
1.70637e-05
1.6805e-05
1.64601e-05
1.60031e-05
1.54016e-05
1.46166e-05
1.36023e-05
1.23072e-05
1.06768e-05
8.65948e-06
6.2144e-06
3.3244e-06
1.14373e-08
-3.64619e-06
-7.49951e-06
-1.13241e-05
-1.48332e-05
-1.7715e-05
-1.96935e-05
-2.05976e-05
-2.04135e-05
-1.92907e-05
-1.7495e-05
-1.53295e-05
-1.30612e-05
-1.0882e-05
-8.90571e-06
-7.18541e-06
-5.73343e-06
-4.53734e-06
-3.57092e-06
-2.80193e-06
-2.19728e-06
-1.72623e-06
-1.36182e-06
-1.08129e-06
-8.65975e-07
-7.0089e-07
-5.74201e-07
-4.76696e-07
-4.01275e-07
-3.42514e-07
-2.96295e-07
-2.59511e-07
-2.29828e-07
-2.055e-07
-1.8522e-07
-1.68015e-07
-1.53157e-07
-1.40103e-07
-1.28449e-07
-1.17897e-07
-1.08227e-07
-9.92738e-08
-9.09132e-08
-8.30488e-08
-7.5607e-08
-6.85314e-08
-6.17782e-08
-5.53109e-08
-4.90969e-08
-4.31031e-08
-3.72954e-08
-3.16379e-08
-2.60936e-08
-2.06249e-08
-1.52005e-08
-9.75464e-09
-4.68227e-09
1.77652e-05
1.77619e-05
1.77535e-05
1.77394e-05
1.77188e-05
1.76895e-05
1.7649e-05
1.75931e-05
1.75168e-05
1.7413e-05
1.72723e-05
1.70824e-05
1.68274e-05
1.64866e-05
1.60338e-05
1.54368e-05
1.4656e-05
1.36451e-05
1.23521e-05
1.07216e-05
8.70086e-06
6.24796e-06
3.34452e-06
1.16452e-08
-3.67257e-06
-7.55823e-06
-1.14185e-05
-1.49624e-05
-1.7873e-05
-1.9869e-05
-2.07758e-05
-2.05794e-05
-1.94326e-05
-1.76068e-05
-1.54107e-05
-1.31151e-05
-1.09138e-05
-8.92097e-06
-7.18898e-06
-5.72933e-06
-4.5287e-06
-3.56004e-06
-2.79037e-06
-2.18607e-06
-1.71598e-06
-1.35283e-06
-1.07367e-06
-8.5971e-07
-6.95881e-07
-5.70312e-07
-4.73774e-07
-3.99167e-07
-3.41076e-07
-2.95397e-07
-2.59039e-07
-2.29685e-07
-2.05604e-07
-1.85505e-07
-1.68428e-07
-1.53653e-07
-1.40649e-07
-1.29019e-07
-1.18471e-07
-1.08792e-07
-9.98194e-08
-9.14331e-08
-8.35392e-08
-7.60661e-08
-6.89586e-08
-6.21742e-08
-5.56773e-08
-4.94358e-08
-4.34169e-08
-3.75867e-08
-3.19092e-08
-2.6347e-08
-2.08622e-08
-1.54218e-08
-9.95476e-09
-4.84023e-09
1.77627e-05
1.77595e-05
1.7751e-05
1.77368e-05
1.7716e-05
1.76866e-05
1.76458e-05
1.75897e-05
1.75131e-05
1.74089e-05
1.72678e-05
1.70774e-05
1.68218e-05
1.64803e-05
1.60268e-05
1.54289e-05
1.46471e-05
1.36351e-05
1.23407e-05
1.07087e-05
8.68616e-06
6.23118e-06
3.32538e-06
-1.01285e-08
-3.69721e-06
-7.58585e-06
-1.1449e-05
-1.49955e-05
-1.79081e-05
-1.99052e-05
-2.08121e-05
-2.0615e-05
-1.94667e-05
-1.76392e-05
-1.54411e-05
-1.31436e-05
-1.09403e-05
-8.94543e-06
-7.21139e-06
-5.74976e-06
-4.54723e-06
-3.57676e-06
-2.8054e-06
-2.19954e-06
-1.728e-06
-1.36354e-06
-1.08318e-06
-8.68137e-07
-7.03328e-07
-5.76877e-07
-4.79547e-07
-4.04229e-07
-3.45502e-07
-2.99254e-07
-2.62388e-07
-2.32582e-07
-2.08098e-07
-1.87642e-07
-1.70246e-07
-1.5519e-07
-1.41935e-07
-1.30084e-07
-1.19342e-07
-1.09491e-07
-1.00369e-07
-9.18517e-08
-8.38442e-08
-7.62728e-08
-6.90808e-08
-6.22241e-08
-5.56659e-08
-4.93729e-08
-4.33114e-08
-3.74466e-08
-3.17415e-08
-2.61579e-08
-2.06573e-08
-1.52068e-08
-9.74069e-09
-4.65873e-09
1.77554e-05
1.7752e-05
1.7743e-05
1.7728e-05
1.77061e-05
1.76754e-05
1.76328e-05
1.75745e-05
1.74953e-05
1.7388e-05
1.72432e-05
1.70487e-05
1.67883e-05
1.64414e-05
1.59821e-05
1.53781e-05
1.45901e-05
1.35724e-05
1.22732e-05
1.06382e-05
8.61551e-06
6.16425e-06
3.26722e-06
-5.35925e-08
-3.71973e-06
-7.58189e-06
-1.14151e-05
-1.49318e-05
-1.78195e-05
-1.98013e-05
-2.07058e-05
-2.05194e-05
-1.93923e-05
-1.75915e-05
-1.54203e-05
-1.31462e-05
-1.09611e-05
-8.97874e-06
-7.2524e-06
-5.79451e-06
-4.59276e-06
-3.62099e-06
-2.84698e-06
-2.23769e-06
-1.76238e-06
-1.39408e-06
-1.11001e-06
-8.91506e-07
-7.23543e-07
-5.94269e-07
-4.94448e-07
-4.16957e-07
-3.56348e-07
-3.08482e-07
-2.70233e-07
-2.39248e-07
-2.13763e-07
-1.92458e-07
-1.74345e-07
-1.58682e-07
-1.44915e-07
-1.32631e-07
-1.21523e-07
-1.11364e-07
-1.01981e-07
-9.32437e-08
-8.505e-08
-7.73211e-08
-6.99957e-08
-6.30257e-08
-5.63713e-08
-4.99966e-08
-4.38659e-08
-3.79427e-08
-3.21884e-08
-2.65636e-08
-2.10281e-08
-1.55468e-08
-1.00454e-08
-4.89794e-09
1.77434e-05
1.77396e-05
1.77297e-05
1.77133e-05
1.76894e-05
1.76561e-05
1.76102e-05
1.7548e-05
1.74639e-05
1.73508e-05
1.71993e-05
1.69969e-05
1.67276e-05
1.63709e-05
1.59009e-05
1.52858e-05
1.44868e-05
1.3459e-05
1.21519e-05
1.05128e-05
8.49162e-06
6.04991e-06
3.17257e-06
-1.16689e-07
-3.73894e-06
-7.54642e-06
-1.13185e-05
-1.47748e-05
-1.76122e-05
-1.95633e-05
-2.04629e-05
-2.02982e-05
-1.92136e-05
-1.74661e-05
-1.53492e-05
-1.31228e-05
-1.0975e-05
-9.01945e-06
-7.31032e-06
-5.8619e-06
-4.6637e-06
-3.69126e-06
-2.91378e-06
-2.29935e-06
-1.81804e-06
-1.44348e-06
-1.15327e-06
-9.28974e-07
-7.55713e-07
-6.2169e-07
-5.17679e-07
-4.36537e-07
-3.72776e-07
-3.22212e-07
-2.81665e-07
-2.48734e-07
-2.21607e-07
-1.9892e-07
-1.79647e-07
-1.63012e-07
-1.48431e-07
-1.35468e-07
-1.23793e-07
-1.1316e-07
-1.03383e-07
-9.43181e-08
-8.5852e-08
-7.7897e-08
-7.03842e-08
-6.32592e-08
-5.64769e-08
-4.9997e-08
-4.37807e-08
-3.77884e-08
-3.19793e-08
-2.6312e-08
-2.07451e-08
-1.52436e-08
-9.74031e-09
-4.63813e-09
1.77269e-05
1.77226e-05
1.77114e-05
1.76929e-05
1.76662e-05
1.76291e-05
1.75787e-05
1.75107e-05
1.74196e-05
1.72983e-05
1.71371e-05
1.69235e-05
1.66416e-05
1.62708e-05
1.57857e-05
1.51548e-05
1.43404e-05
1.32987e-05
1.19811e-05
1.03371e-05
8.31955e-06
5.89319e-06
3.04605e-06
-1.95863e-07
-3.75305e-06
-7.48016e-06
-1.11629e-05
-1.45316e-05
-1.72964e-05
-1.92033e-05
-2.0096e-05
-1.99624e-05
-1.89388e-05
-1.72684e-05
-1.52301e-05
-1.30732e-05
-1.09807e-05
-9.06519e-06
-7.38243e-06
-5.94912e-06
-4.75738e-06
-3.78515e-06
-3.00369e-06
-2.38271e-06
-1.89352e-06
-1.51057e-06
-1.21207e-06
-9.79913e-07
-7.99441e-07
-6.5895e-07
-5.49239e-07
-4.63138e-07
-3.95112e-07
-3.4091e-07
-2.97282e-07
-2.61756e-07
-2.32454e-07
-2.0795e-07
-1.87164e-07
-1.69272e-07
-1.5365e-07
-1.39824e-07
-1.27436e-07
-1.16213e-07
-1.05949e-07
-9.64816e-08
-8.7683e-08
-7.94532e-08
-7.17128e-08
-6.43988e-08
-5.74591e-08
-5.0848e-08
-4.45221e-08
-3.84384e-08
-3.25532e-08
-2.68228e-08
-2.12034e-08
-1.56571e-08
-1.01061e-08
-4.92242e-09
1.77063e-05
1.77013e-05
1.76885e-05
1.76674e-05
1.7637e-05
1.75953e-05
1.75388e-05
1.74635e-05
1.73636e-05
1.72318e-05
1.70583e-05
1.68305e-05
1.65325e-05
1.6144e-05
1.56399e-05
1.49893e-05
1.41557e-05
1.30971e-05
1.17669e-05
1.01178e-05
8.1063e-06
5.70098e-06
2.89377e-06
-2.86555e-07
-3.76005e-06
-7.38467e-06
-1.09543e-05
-1.42126e-05
-1.68866e-05
-1.87383e-05
-1.96225e-05
-1.95277e-05
-1.85802e-05
-1.70061e-05
-1.50668e-05
-1.29981e-05
-1.09765e-05
-9.11303e-06
-7.46512e-06
-6.05237e-06
-4.87008e-06
-3.89921e-06
-3.1136e-06
-2.48506e-06
-1.98642e-06
-1.59328e-06
-1.28458e-06
-1.04271e-06
-8.53284e-07
-7.04737e-07
-5.87905e-07
-4.95602e-07
-4.22231e-07
-3.63465e-07
-3.15968e-07
-2.77181e-07
-2.45143e-07
-2.18354e-07
-1.95663e-07
-1.76189e-07
-1.59255e-07
-1.44343e-07
-1.31057e-07
-1.19094e-07
-1.08218e-07
-9.82465e-08
-8.90333e-08
-8.04626e-08
-7.2442e-08
-6.48977e-08
-5.77688e-08
-5.10024e-08
-4.45495e-08
-3.83626e-08
-3.23944e-08
-2.65982e-08
-2.09285e-08
-1.53471e-08
-9.7839e-09
-4.64182e-09
1.76821e-05
1.76763e-05
1.76615e-05
1.76373e-05
1.76026e-05
1.75552e-05
1.74917e-05
1.74077e-05
1.72973e-05
1.7153e-05
1.69649e-05
1.67204e-05
1.64035e-05
1.59941e-05
1.54677e-05
1.47943e-05
1.39387e-05
1.28607e-05
1.15169e-05
9.86309e-06
7.86017e-06
5.48133e-06
2.72276e-06
-3.83761e-07
-3.75811e-06
-7.2624e-06
-1.07004e-05
-1.3831e-05
-1.64003e-05
-1.81888e-05
-1.90632e-05
-1.90126e-05
-1.81522e-05
-1.6689e-05
-1.48642e-05
-1.28988e-05
-1.0961e-05
-9.1599e-06
-7.55443e-06
-6.16735e-06
-4.99755e-06
-4.02945e-06
-3.23993e-06
-2.60323e-06
-2.09406e-06
-1.68936e-06
-1.36898e-06
-1.11592e-06
-9.16133e-07
-7.58241e-07
-6.33141e-07
-5.33631e-07
-4.54053e-07
-3.89991e-07
-3.38013e-07
-2.95457e-07
-2.60268e-07
-2.30854e-07
-2.05985e-07
-1.8471e-07
-1.66291e-07
-1.50156e-07
-1.35865e-07
-1.23076e-07
-1.11524e-07
-1.00998e-07
-9.13298e-08
-8.23868e-08
-7.40608e-08
-6.62653e-08
-5.89292e-08
-5.19913e-08
-4.53962e-08
-3.90911e-08
-3.30247e-08
-2.71471e-08
-2.14101e-08
-1.57719e-08
-1.01518e-08
-4.92235e-09
1.76548e-05
1.76482e-05
1.76311e-05
1.76033e-05
1.75638e-05
1.751e-05
1.74385e-05
1.73446e-05
1.72224e-05
1.7064e-05
1.68594e-05
1.65961e-05
1.6258e-05
1.58254e-05
1.52742e-05
1.45756e-05
1.36959e-05
1.25973e-05
1.12393e-05
9.58179e-06
7.59024e-06
5.24283e-06
2.54032e-06
-4.82582e-07
-3.74591e-06
-7.11678e-06
-1.04099e-05
-1.3401e-05
-1.58567e-05
-1.75768e-05
-1.84405e-05
-1.84374e-05
-1.76709e-05
-1.6328e-05
-1.46286e-05
-1.27773e-05
-1.09333e-05
-9.20291e-06
-7.64633e-06
-6.2895e-06
-5.13514e-06
-4.17143e-06
-3.37858e-06
-2.73357e-06
-2.21323e-06
-1.79601e-06
-1.46285e-06
-1.19745e-06
-9.86171e-07
-8.17872e-07
-6.83533e-07
-5.75947e-07
-4.89398e-07
-4.19377e-07
-3.62345e-07
-3.15534e-07
-2.76778e-07
-2.44389e-07
-2.17047e-07
-1.93723e-07
-1.7361e-07
-1.56078e-07
-1.40636e-07
-1.26901e-07
-1.1457e-07
-1.03405e-07
-9.3213e-08
-8.384e-08
-7.51614e-08
-6.70765e-08
-5.95024e-08
-5.23687e-08
-4.56123e-08
-3.91747e-08
-3.29998e-08
-2.70345e-08
-2.12277e-08
-1.55372e-08
-9.88821e-09
-4.68088e-09
1.76251e-05
1.76175e-05
1.7598e-05
1.75663e-05
1.75214e-05
1.74607e-05
1.73804e-05
1.72758e-05
1.71407e-05
1.6967e-05
1.67446e-05
1.64609e-05
1.61e-05
1.56424e-05
1.50648e-05
1.43396e-05
1.34347e-05
1.23148e-05
1.09429e-05
9.2831e-06
7.30569e-06
4.99403e-06
2.35341e-06
-5.78665e-07
-3.72289e-06
-6.95205e-06
-1.00926e-05
-1.29379e-05
-1.52754e-05
-1.69247e-05
-1.7777e-05
-1.78226e-05
-1.71531e-05
-1.59351e-05
-1.43671e-05
-1.26367e-05
-1.08933e-05
-9.2397e-06
-7.73709e-06
-6.41443e-06
-5.27825e-06
-4.32065e-06
-3.52536e-06
-2.8723e-06
-2.34058e-06
-1.91037e-06
-1.56377e-06
-1.28528e-06
-1.06176e-06
-8.82321e-07
-7.38069e-07
-6.21803e-07
-5.27751e-07
-4.51316e-07
-3.88847e-07
-3.37458e-07
-2.94872e-07
-2.59294e-07
-2.29309e-07
-2.03801e-07
-1.81888e-07
-1.62878e-07
-1.46224e-07
-1.31496e-07
-1.18354e-07
-1.06525e-07
-9.57922e-08
-8.59775e-08
-7.69383e-08
-6.85584e-08
-6.07422e-08
-5.3409e-08
-4.64876e-08
-3.99131e-08
-3.36245e-08
-2.75647e-08
-2.16797e-08
-1.59233e-08
-1.02113e-08
-4.91897e-09
1.75936e-05
1.75851e-05
1.7563e-05
1.75271e-05
1.74766e-05
1.74085e-05
1.7319e-05
1.7203e-05
1.70542e-05
1.68645e-05
1.66234e-05
1.63183e-05
1.59335e-05
1.54501e-05
1.48452e-05
1.40926e-05
1.31622e-05
1.20214e-05
1.06365e-05
8.97608e-06
7.01539e-06
4.7429e-06
2.1683e-06
-6.68502e-07
-3.68932e-06
-6.77311e-06
-9.75849e-06
-1.24566e-05
-1.46754e-05
-1.62537e-05
-1.70943e-05
-1.71881e-05
-1.66151e-05
-1.55224e-05
-1.40874e-05
-1.24807e-05
-1.08415e-05
-9.26859e-06
-7.82357e-06
-6.53811e-06
-5.4225e-06
-4.47271e-06
-3.67607e-06
-3.01555e-06
-2.47266e-06
-2.02936e-06
-1.66906e-06
-1.3771e-06
-1.1409e-06
-9.49882e-07
-7.95277e-07
-6.69917e-07
-5.67987e-07
-4.84799e-07
-4.16594e-07
-3.60369e-07
-3.13729e-07
-2.74769e-07
-2.41974e-07
-2.1414e-07
-1.90307e-07
-1.69716e-07
-1.51761e-07
-1.35966e-07
-1.21948e-07
-1.09401e-07
-9.80792e-08
-8.77824e-08
-7.8348e-08