# Force       
# CofR        : (0.000000e+00 0.000000e+00 0.000000e+00)
#
# Time        	total_x total_y total_z	pressure_x pressure_y pressure_z	viscous_x viscous_y viscous_z
1              2.113208e+00 7.713930e-02 4.904452e+00 1.971980e+00 7.710747e-02 4.903545e+00 1.412281e-01 3.182875e-05 9.063964e-04
2              2.758921e+00 1.021954e-01 6.602797e+00 2.624815e+00 1.022019e-01 6.608860e+00 1.341057e-01 -6.495164e-06 -6.062763e-03
3              2.598051e+00 9.704636e-02 6.214476e+00 2.469008e+00 9.711504e-02 6.227554e+00 1.290432e-01 -6.867892e-05 -1.307783e-02
4              1.968124e+00 7.425813e-02 4.582596e+00 1.842717e+00 7.436781e-02 4.600568e+00 1.254065e-01 -1.096856e-04 -1.797271e-02
5              1.164515e+00 4.388321e-02 2.485869e+00 1.041533e+00 4.401009e-02 2.505959e+00 1.229820e-01 -1.268807e-04 -2.008983e-02
6              4.203031e-01 1.455348e-02 5.511060e-01 2.987540e-01 1.468086e-02 5.707769e-01 1.215491e-01 -1.273864e-04 -1.967092e-02
7              -1.183202e-01 -7.798758e-03 -8.235078e-01 -2.391225e-01 -7.680545e-03 -8.060256e-01 1.208023e-01 -1.182126e-04 -1.748219e-02
8              -3.951168e-01 -2.050054e-02 -1.483369e+00 -5.155179e-01 -2.039664e-02 -1.468895e+00 1.204011e-01 -1.039020e-04 -1.447413e-02
9              -4.223331e-01 -2.355014e-02 -1.477996e+00 -5.423893e-01 -2.346316e-02 -1.466482e+00 1.200562e-01 -8.697741e-05 -1.151420e-02
10             -3.030609e-01 -2.091649e-02 -1.080267e+00 -4.226063e-01 -2.084584e-02 -1.071041e+00 1.195454e-01 -7.065083e-05 -9.226426e-03
11             -1.058436e-01 -1.451427e-02 -4.758688e-01 -2.245914e-01 -1.445813e-02 -4.679713e-01 1.187478e-01 -5.613949e-05 -7.897477e-03
12             1.037939e-01 -6.354812e-03 1.497698e-01 -1.387337e-02 -6.310769e-03 1.572915e-01 1.176672e-01 -4.404288e-05 -7.521736e-03
13             2.773613e-01 1.738445e-03 6.579499e-01 1.609758e-01 1.772490e-03 6.658284e-01 1.163855e-01 -3.404467e-05 -7.878500e-03
14             3.887091e-01 8.358384e-03 9.732183e-01 2.736875e-01 8.383986e-03 9.818615e-01 1.150216e-01 -2.560185e-05 -8.643171e-03
15             4.319927e-01 1.253524e-02 1.080094e+00 3.183022e-01 1.255359e-02 1.089587e+00 1.136906e-01 -1.835117e-05 -9.493192e-03
16             4.224288e-01 1.417145e-02 1.029388e+00 3.099545e-01 1.418349e-02 1.039569e+00 1.124743e-01 -1.204192e-05 -1.018073e-02
17             3.819440e-01 1.398335e-02 8.847955e-01 2.705212e-01 1.398955e-02 8.953644e-01 1.114229e-01 -6.200320e-06 -1.056890e-02
18             3.277055e-01 1.236606e-02 6.990187e-01 2.171581e-01 1.236710e-02 7.096502e-01 1.105475e-01 -1.042299e-06 -1.063145e-02
19             2.753424e-01 9.892800e-03 5.224633e-01 1.655169e-01 9.889437e-03 5.328856e-01 1.098254e-01 3.362738e-06 -1.042237e-02
20             2.353613e-01 7.194071e-03 3.900754e-01 1.261439e-01 7.186898e-03 4.001164e-01 1.092174e-01 7.172832e-06 -1.004106e-02
21             2.123205e-01 4.841408e-03 3.177232e-01 1.036393e-01 4.830843e-03 3.273206e-01 1.086812e-01 1.056479e-05 -9.597462e-03
22             2.053686e-01 3.237170e-03 3.023858e-01 9.718653e-02 3.223294e-03 3.115705e-01 1.081820e-01 1.387620e-05 -9.184765e-03
23             2.093050e-01 2.353961e-03 3.248507e-01 1.016089e-01 2.337070e-03 3.337137e-01 1.076961e-01 1.689078e-05 -8.863092e-03
24             2.191231e-01 2.053459e-03 3.678841e-01 1.119155e-01 2.033863e-03 3.765392e-01 1.072076e-01 1.959580e-05 -8.655121e-03
25             2.305369e-01 2.225840e-03 4.163886e-01 1.238221e-01 2.203636e-03 4.249410e-01 1.067148e-01 2.220417e-05 -8.552424e-03
26             2.403459e-01 2.696449e-03 4.580356e-01 1.341079e-01 2.671991e-03 4.665621e-01 1.062380e-01 2.445800e-05 -8.526505e-03
27             2.466320e-01 3.259788e-03 4.853316e-01 1.408580e-01 3.233674e-03 4.938735e-01 1.057740e-01 2.611383e-05 -8.541922e-03
28             2.489396e-01 3.738187e-03 4.961816e-01 1.436078e-01 3.711070e-03 5.047462e-01 1.053319e-01 2.711704e-05 -8.564557e-03
29             2.479620e-01 4.025597e-03 4.932412e-01 1.430441e-01 3.998158e-03 5.018104e-01 1.049179e-01 2.743932e-05 -8.569175e-03
30             2.448672e-01 4.106217e-03 4.812925e-01 1.403321e-01 4.079075e-03 4.898352e-01 1.045351e-01 2.714178e-05 -8.542632e-03
31             2.407417e-01 3.995010e-03 4.645135e-01 1.365577e-01 3.968700e-03 4.729966e-01 1.041841e-01 2.630934e-05 -8.483094e-03
32             2.365677e-01 3.728558e-03 4.468241e-01 1.327055e-01 3.703424e-03 4.552213e-01 1.038622e-01 2.513471e-05 -8.397160e-03
33             2.330548e-01 3.367747e-03 4.313582e-01 1.294898e-01 3.344034e-03 4.396538e-01 1.035650e-01 2.371266e-05 -8.295632e-03
34             2.305457e-01 2.980880e-03 4.198948e-01 1.272576e-01 2.958867e-03 4.280849e-01 1.032881e-01 2.201298e-05 -8.190157e-03
35             2.290494e-01 2.625376e-03 4.127966e-01 1.260215e-01 2.605416e-03 4.208872e-01 1.030279e-01 1.995955e-05 -8.090554e-03
36             2.283556e-01 2.336850e-03 4.093729e-01 1.255743e-01 2.319217e-03 4.173760e-01 1.027813e-01 1.763250e-05 -8.003126e-03
37             2.281591e-01 2.128037e-03 4.083521e-01 1.256125e-01 2.112938e-03 4.162824e-01 1.025467e-01 1.509943e-05 -7.930274e-03
38             2.281117e-01 1.997944e-03 4.082547e-01 1.257925e-01 1.985458e-03 4.161259e-01 1.023192e-01 1.248603e-05 -7.871207e-03
39             2.280517e-01 1.926305e-03 4.080957e-01 1.259445e-01 1.916436e-03 4.159180e-01 1.021071e-01 9.868846e-06 -7.822293e-03
40             2.278318e-01 1.891753e-03 4.071442e-01 1.259257e-01 1.884474e-03 4.149244e-01 1.019061e-01 7.278739e-06 -7.780154e-03
41             2.273956e-01 1.873976e-03 4.050720e-01 1.256792e-01 1.869189e-03 4.128131e-01 1.017164e-01 4.787770e-06 -7.741159e-03
42             2.267684e-01 1.855967e-03 4.019403e-01 1.252300e-01 1.853553e-03 4.096428e-01 1.015384e-01 2.413761e-06 -7.702486e-03
43             2.260769e-01 1.829267e-03 3.983943e-01 1.247050e-01 1.828737e-03 4.060567e-01 1.013720e-01 5.300069e-07 -7.662382e-03
44             2.253903e-01 1.788304e-03 3.947640e-01 1.241735e-01 1.789617e-03 4.023853e-01 1.012167e-01 -1.312835e-06 -7.621270e-03
45             2.247045e-01 1.739540e-03 3.911425e-01 1.236320e-01 1.742661e-03 3.987272e-01 1.010725e-01 -3.121349e-06 -7.584690e-03
46             2.240529e-01 1.686963e-03 3.876993e-01 1.231144e-01 1.691834e-03 3.952468e-01 1.009386e-01 -4.870370e-06 -7.547427e-03
47             2.234561e-01 1.635021e-03 3.845206e-01 1.226417e-01 1.641574e-03 3.920308e-01 1.008143e-01 -6.553549e-06 -7.510152e-03
48             2.229218e-01 1.587659e-03 3.816256e-01 1.222227e-01 1.595862e-03 3.890992e-01 1.006991e-01 -8.203150e-06 -7.473608e-03
49             2.224441e-01 1.548071e-03 3.789641e-01 1.218518e-01 1.557877e-03 3.864025e-01 1.005923e-01 -9.806086e-06 -7.438430e-03
50             2.220077e-01 1.518485e-03 3.764474e-01 1.215146e-01 1.529838e-03 3.838525e-01 1.004931e-01 -1.135321e-05 -7.405076e-03
51             2.216230e-01 1.498228e-03 3.741441e-01 1.212217e-01 1.511058e-03 3.815178e-01 1.004012e-01 -1.283001e-05 -7.373741e-03
52             2.212903e-01 1.489664e-03 3.720818e-01 1.209740e-01 1.503899e-03 3.794262e-01 1.003163e-01 -1.423437e-05 -7.344418e-03
53             2.210123e-01 1.488354e-03 3.702611e-01 1.207744e-01 1.503914e-03 3.775778e-01 1.002378e-01 -1.555997e-05 -7.316746e-03
54             2.207670e-01 1.491832e-03 3.685604e-01 1.206014e-01 1.508634e-03 3.758509e-01 1.001655e-01 -1.680190e-05 -7.290518e-03
55             2.205287e-01 1.498670e-03 3.668495e-01 1.204296e-01 1.516630e-03 3.741151e-01 1.000990e-01 -1.795975e-05 -7.265532e-03
56             2.202822e-01 1.507586e-03 3.650618e-01 1.202442e-01 1.526606e-03 3.723034e-01 1.000380e-01 -1.902008e-05 -7.241631e-03
57             2.200219e-01 1.517497e-03 3.631834e-01 1.200399e-01 1.537480e-03 3.704021e-01 9.998204e-02 -1.998294e-05 -7.218685e-03
58             2.197358e-01 1.527736e-03 3.612284e-01 1.198166e-01 1.548638e-03 3.684241e-01 9.991923e-02 -2.090250e-05 -7.195668e-03
59             2.194371e-01 1.538220e-03 3.592132e-01 1.195750e-01 1.559929e-03 3.663868e-01 9.986213e-02 -2.170888e-05 -7.173571e-03
60             2.191314e-01 1.548968e-03 3.571756e-01 1.193207e-01 1.571378e-03 3.643280e-01 9.981065e-02 -2.241007e-05 -7.152414e-03
61             2.188353e-01 1.559441e-03 3.552098e-01 1.190708e-01 1.582451e-03 3.623420e-01 9.976444e-02 -2.301045e-05 -7.132218e-03
62             2.185684e-01 1.569080e-03 3.534170e-01 1.188453e-01 1.592591e-03 3.605300e-01 9.972314e-02 -2.351114e-05 -7.112987e-03
63             2.183384e-01 1.578325e-03 3.518275e-01 1.186520e-01 1.602241e-03 3.589222e-01 9.968639e-02 -2.391566e-05 -7.094727e-03
64             2.181385e-01 1.588465e-03 3.503963e-01 1.184847e-01 1.612694e-03 3.574737e-01 9.965379e-02 -2.422946e-05 -7.077443e-03
65             2.179661e-01 1.598841e-03 3.491162e-01 1.183419e-01 1.623301e-03 3.561773e-01 9.962416e-02 -2.445990e-05 -7.061101e-03
66             2.178081e-01 1.611250e-03 3.479086e-01 1.182101e-01 1.635859e-03 3.549543e-01 9.959796e-02 -2.460913e-05 -7.045767e-03
67             2.176548e-01 1.626628e-03 3.467212e-01 1.180800e-01 1.651309e-03 3.537526e-01 9.957488e-02 -2.468117e-05 -7.031405e-03
68             2.175007e-01 1.645162e-03 3.455267e-01 1.179461e-01 1.669842e-03 3.525447e-01 9.955463e-02 -2.467913e-05 -7.017958e-03
69             2.173336e-01 1.667921e-03 3.442535e-01 1.177959e-01 1.692531e-03 3.512589e-01 9.953767e-02 -2.460934e-05 -7.005382e-03
70             2.171573e-01 1.693416e-03 3.429361e-01 1.176344e-01 1.717896e-03 3.499296e-01 9.952297e-02 -2.448042e-05 -6.993516e-03
71             2.169781e-01 1.720268e-03 3.416161e-01 1.174679e-01 1.744564e-03 3.485984e-01 9.951028e-02 -2.429562e-05 -6.982297e-03
72             2.168030e-01 1.747325e-03 3.403385e-01 1.173036e-01 1.771385e-03 3.473102e-01 9.949939e-02 -2.405959e-05 -6.971687e-03
73             2.166388e-01 1.773714e-03 3.391447e-01 1.171488e-01 1.797494e-03 3.461063e-01 9.949007e-02 -2.377985e-05 -6.961655e-03
74             2.164899e-01 1.799012e-03 3.380586e-01 1.170078e-01 1.822472e-03 3.450108e-01 9.948214e-02 -2.346069e-05 -6.952184e-03
75             2.163563e-01 1.823281e-03 3.370797e-01 1.168809e-01 1.846388e-03 3.440230e-01 9.947542e-02 -2.310756e-05 -6.943262e-03
76             2.162350e-01 1.846902e-03 3.361886e-01 1.167652e-01 1.869629e-03 3.431235e-01 9.946974e-02 -2.272682e-05 -6.934883e-03
77             2.161216e-01 1.870295e-03 3.353609e-01 1.166566e-01 1.892618e-03 3.422880e-01 9.946497e-02 -2.232337e-05 -6.927035e-03
78             2.160127e-01 1.893733e-03 3.345770e-01 1.165517e-01 1.915635e-03 3.414967e-01 9.946100e-02 -2.190273e-05 -6.919705e-03
79             2.159062e-01 1.917305e-03 3.338248e-01 1.164485e-01 1.938773e-03 3.407376e-01 9.945770e-02 -2.146882e-05 -6.912871e-03
80             2.158009e-01 1.940965e-03 3.330986e-01 1.163459e-01 1.961991e-03 3.400051e-01 9.945498e-02 -2.102580e-05 -6.906505e-03
81             2.156976e-01 1.964611e-03 3.323975e-01 1.162440e-01 1.985183e-03 3.392982e-01 9.945356e-02 -2.057276e-05 -6.900686e-03
82             2.155957e-01 1.988108e-03 3.317236e-01 1.161432e-01 2.008227e-03 3.386188e-01 9.945242e-02 -2.011900e-05 -6.895261e-03
83             2.154959e-01 2.011329e-03 3.310807e-01 1.160444e-01 2.030996e-03 3.379709e-01 9.945151e-02 -1.966743e-05 -6.890205e-03
84             2.153995e-01 2.034125e-03 3.304745e-01 1.159488e-01 2.053346e-03 3.373600e-01 9.945079e-02 -1.922084e-05 -6.885494e-03
85             2.153081e-01 2.056328e-03 3.299120e-01 1.158579e-01 2.075110e-03 3.367931e-01 9.945023e-02 -1.878212e-05 -6.881108e-03
86             2.152230e-01 2.077801e-03 3.293985e-01 1.157732e-01 2.096154e-03 3.362755e-01 9.944980e-02 -1.835374e-05 -6.877029e-03
87             2.151447e-01 2.098503e-03 3.289348e-01 1.156952e-01 2.116442e-03 3.358080e-01 9.944947e-02 -1.793813e-05 -6.873240e-03
88             2.150726e-01 2.118516e-03 3.285160e-01 1.156234e-01 2.136053e-03 3.353857e-01 9.944923e-02 -1.753720e-05 -6.869729e-03
89             2.150056e-01 2.137971e-03 3.281344e-01 1.155565e-01 2.155124e-03 3.350008e-01 9.944905e-02 -1.715280e-05 -6.866482e-03
90             2.149422e-01 2.156987e-03 3.277827e-01 1.154933e-01 2.173773e-03 3.346462e-01 9.944892e-02 -1.678633e-05 -6.863488e-03
91             2.148817e-01 2.175620e-03 3.274559e-01 1.154328e-01 2.192058e-03 3.343167e-01 9.944882e-02 -1.643829e-05 -6.860736e-03
92             2.148291e-01 2.194275e-03 3.271789e-01 1.153805e-01 2.210383e-03 3.340371e-01 9.944864e-02 -1.610839e-05 -6.858191e-03
93             2.147817e-01 2.212730e-03 3.269364e-01 1.153332e-01 2.228529e-03 3.337923e-01 9.944847e-02 -1.579939e-05 -6.855903e-03
94             2.147369e-01 2.230754e-03 3.267168e-01 1.152886e-01 2.246266e-03 3.335707e-01 9.944832e-02 -1.551187e-05 -6.853858e-03
95             2.146932e-01 2.248156e-03 3.265122e-01 1.152450e-01 2.263401e-03 3.333643e-01 9.944819e-02 -1.524524e-05 -6.852037e-03
96             2.146447e-01 2.264428e-03 3.262947e-01 1.151966e-01 2.279427e-03 3.331451e-01 9.944813e-02 -1.499926e-05 -6.850437e-03
97             2.145940e-01 2.279683e-03 3.260757e-01 1.151459e-01 2.294453e-03 3.329247e-01 9.944809e-02 -1.477036e-05 -6.848979e-03
98             2.145441e-01 2.294079e-03 3.258676e-01 1.150960e-01 2.308637e-03 3.327152e-01 9.944807e-02 -1.455776e-05 -6.847642e-03
99             2.144976e-01 2.307767e-03 3.256805e-01 1.150496e-01 2.322128e-03 3.325269e-01 9.944805e-02 -1.436140e-05 -6.846418e-03
100            2.144562e-01 2.320874e-03 3.255209e-01 1.150082e-01 2.335056e-03 3.323662e-01 9.944803e-02 -1.418195e-05 -6.845302e-03
101            2.144206e-01 2.333513e-03 3.253901e-01 1.149726e-01 2.347534e-03 3.322343e-01 9.944800e-02 -1.402023e-05 -6.844297e-03
102            2.143901e-01 2.345787e-03 3.252853e-01 1.149421e-01 2.359664e-03 3.321287e-01 9.944796e-02 -1.387645e-05 -6.843405e-03
103            2.143638e-01 2.357771e-03 3.252021e-01 1.149159e-01 2.371522e-03 3.320447e-01 9.944790e-02 -1.375032e-05 -6.842628e-03
104            2.143438e-01 2.369665e-03 3.251488e-01 1.148959e-01 2.383306e-03 3.319908e-01 9.944783e-02 -1.364063e-05 -6.841950e-03
105            2.143275e-01 2.381329e-03 3.251150e-01 1.148798e-01 2.394877e-03 3.319564e-01 9.944772e-02 -1.354853e-05 -6.841404e-03
106            2.143131e-01 2.392619e-03 3.250924e-01 1.148655e-01 2.406092e-03 3.319333e-01 9.944760e-02 -1.347257e-05 -6.840982e-03
107            2.142992e-01 2.403427e-03 3.250756e-01 1.148518e-01 2.416837e-03 3.319163e-01 9.944745e-02 -1.341072e-05 -6.840670e-03
108            2.142853e-01 2.413692e-03 3.250617e-01 1.148380e-01 2.427053e-03 3.319022e-01 9.944728e-02 -1.336075e-05 -6.840449e-03
109            2.142711e-01 2.423392e-03 3.250496e-01 1.148240e-01 2.436713e-03 3.318899e-01 9.944711e-02 -1.332062e-05 -6.840305e-03
110            2.142569e-01 2.432484e-03 3.250395e-01 1.148100e-01 2.445773e-03 3.318797e-01 9.944692e-02 -1.328877e-05 -6.840222e-03
111            2.142433e-01 2.440906e-03 3.250321e-01 1.147966e-01 2.454170e-03 3.318723e-01 9.944673e-02 -1.326429e-05 -6.840187e-03
112            2.142309e-01 2.448634e-03 3.250282e-01 1.147844e-01 2.461881e-03 3.318683e-01 9.944654e-02 -1.324671e-05 -6.840193e-03
113            2.142200e-01 2.455723e-03 3.250280e-01 1.147736e-01 2.468959e-03 3.318682e-01 9.944634e-02 -1.323582e-05 -6.840234e-03
114            2.142105e-01 2.462294e-03 3.250320e-01 1.147644e-01 2.475525e-03 3.318723e-01 9.944614e-02 -1.323121e-05 -6.840306e-03
115            2.142025e-01 2.468478e-03 3.250405e-01 1.147565e-01 2.481711e-03 3.318809e-01 9.944593e-02 -1.323237e-05 -6.840408e-03
116            2.141958e-01 2.474366e-03 3.250537e-01 1.147500e-01 2.487604e-03 3.318943e-01 9.944573e-02 -1.323865e-05 -6.840538e-03
117            2.141903e-01 2.479996e-03 3.250716e-01 1.147447e-01 2.493245e-03 3.319122e-01 9.944552e-02 -1.324934e-05 -6.840696e-03
118            2.141858e-01 2.485370e-03 3.250937e-01 1.147405e-01 2.498634e-03 3.319346e-01 9.944531e-02 -1.326370e-05 -6.840878e-03
119            2.141824e-01 2.490487e-03 3.251198e-01 1.147373e-01 2.503768e-03 3.319609e-01 9.944510e-02 -1.328094e-05 -6.841083e-03
120            2.141798e-01 2.495344e-03 3.251499e-01 1.147349e-01 2.508644e-03 3.319912e-01 9.944489e-02 -1.330027e-05 -6.841306e-03
121            2.141781e-01 2.499913e-03 3.251833e-01 1.147335e-01 2.513234e-03 3.320248e-01 9.944467e-02 -1.332100e-05 -6.841543e-03
122            2.141771e-01 2.504112e-03 3.252180e-01 1.147327e-01 2.517455e-03 3.320598e-01 9.944446e-02 -1.334266e-05 -6.841792e-03
123            2.141765e-01 2.507864e-03 3.252513e-01 1.147323e-01 2.521230e-03 3.320934e-01 9.944425e-02 -1.336509e-05 -6.842049e-03
124            2.141760e-01 2.511153e-03 3.252818e-01 1.147320e-01 2.524541e-03 3.321241e-01 9.944403e-02 -1.338818e-05 -6.842312e-03
125            2.141757e-01 2.514039e-03 3.253097e-01 1.147318e-01 2.527451e-03 3.321523e-01 9.944383e-02 -1.341177e-05 -6.842578e-03
126            2.141756e-01 2.516619e-03 3.253369e-01 1.147319e-01 2.530055e-03 3.321798e-01 9.944362e-02 -1.343549e-05 -6.842845e-03
127            2.141758e-01 2.518960e-03 3.253646e-01 1.147324e-01 2.532419e-03 3.322077e-01 9.944343e-02 -1.345895e-05 -6.843111e-03
128            2.141766e-01 2.521099e-03 3.253933e-01 1.147334e-01 2.534581e-03 3.322366e-01 9.944324e-02 -1.348179e-05 -6.843375e-03
129            2.141778e-01 2.523052e-03 3.254231e-01 1.147348e-01 2.536556e-03 3.322667e-01 9.944305e-02 -1.350374e-05 -6.843634e-03
130            2.141795e-01 2.524827e-03 3.254539e-01 1.147366e-01 2.538352e-03 3.322978e-01 9.944287e-02 -1.352458e-05 -6.843889e-03
131            2.141816e-01 2.526430e-03 3.254856e-01 1.147389e-01 2.539974e-03 3.323297e-01 9.944270e-02 -1.354418e-05 -6.844138e-03
132            2.141838e-01 2.527840e-03 3.255174e-01 1.147413e-01 2.541402e-03 3.323619e-01 9.944254e-02 -1.356230e-05 -6.844424e-03
133            2.141861e-01 2.529046e-03 3.255489e-01 1.147437e-01 2.542625e-03 3.323936e-01 9.944238e-02 -1.357950e-05 -6.844694e-03
134            2.141884e-01 2.530044e-03 3.255787e-01 1.147462e-01 2.543640e-03 3.324237e-01 9.944224e-02 -1.359575e-05 -6.844946e-03
135            2.141906e-01 2.530848e-03 3.256061e-01 1.147485e-01 2.544459e-03 3.324513e-01 9.944210e-02 -1.361109e-05 -6.845182e-03
136            2.141927e-01 2.531481e-03 3.256311e-01 1.147507e-01 2.545107e-03 3.324765e-01 9.944197e-02 -1.362552e-05 -6.845404e-03
137            2.141949e-01 2.531969e-03 3.256545e-01 1.147530e-01 2.545608e-03 3.325001e-01 9.944184e-02 -1.363894e-05 -6.845611e-03
138            2.141971e-01 2.532333e-03 3.256771e-01 1.147554e-01 2.545985e-03 3.325229e-01 9.944173e-02 -1.365131e-05 -6.845807e-03
139            2.141997e-01 2.532630e-03 3.256993e-01 1.147581e-01 2.546293e-03 3.325453e-01 9.944162e-02 -1.366256e-05 -6.845962e-03
140            2.142025e-01 2.532862e-03 3.257210e-01 1.147610e-01 2.546534e-03 3.325671e-01 9.944152e-02 -1.367251e-05 -6.846114e-03
141            2.142054e-01 2.533027e-03 3.257415e-01 1.147639e-01 2.546708e-03 3.325878e-01 9.944143e-02 -1.368120e-05 -6.846262e-03
142            2.142081e-01 2.533123e-03 3.257609e-01 1.147668e-01 2.546811e-03 3.326073e-01 9.944135e-02 -1.368868e-05 -6.846405e-03
143            2.142108e-01 2.533147e-03 3.257791e-01 1.147695e-01 2.546842e-03 3.326257e-01 9.944127e-02 -1.369503e-05 -6.846542e-03
144            2.142134e-01 2.533098e-03 3.257963e-01 1.147722e-01 2.546798e-03 3.326430e-01 9.944120e-02 -1.370033e-05 -6.846672e-03
145            2.142158e-01 2.533041e-03 3.258125e-01 1.147746e-01 2.546746e-03 3.326593e-01 9.944113e-02 -1.370452e-05 -6.846792e-03
146            2.142179e-01 2.532961e-03 3.258266e-01 1.147768e-01 2.546669e-03 3.326735e-01 9.944106e-02 -1.370779e-05 -6.846905e-03
147            2.142196e-01 2.532847e-03 3.258382e-01 1.147785e-01 2.546557e-03 3.326852e-01 9.944101e-02 -1.371033e-05 -6.847010e-03
148            2.142208e-01 2.532647e-03 3.258473e-01 1.147799e-01 2.546360e-03 3.326944e-01 9.944097e-02 -1.371243e-05 -6.847107e-03
149            2.142219e-01 2.532380e-03 3.258548e-01 1.147809e-01 2.546094e-03 3.327020e-01 9.944094e-02 -1.371411e-05 -6.847195e-03
150            2.142229e-01 2.532061e-03 3.258618e-01 1.147820e-01 2.545776e-03 3.327091e-01 9.944091e-02 -1.371537e-05 -6.847275e-03
151            2.142239e-01 2.531705e-03 3.258686e-01 1.147830e-01 2.545421e-03 3.327159e-01 9.944089e-02 -1.371627e-05 -6.847347e-03
152            2.142250e-01 2.531327e-03 3.258753e-01 1.147841e-01 2.545044e-03 3.327227e-01 9.944087e-02 -1.371685e-05 -6.847412e-03
153            2.142262e-01 2.530937e-03 3.258822e-01 1.147853e-01 2.544654e-03 3.327297e-01 9.944086e-02 -1.371716e-05 -6.847470e-03
154            2.142275e-01 2.530539e-03 3.258891e-01 1.147866e-01 2.544256e-03 3.327366e-01 9.944085e-02 -1.371726e-05 -6.847521e-03
155            2.142288e-01 2.530142e-03 3.258959e-01 1.147879e-01 2.543859e-03 3.327434e-01 9.944084e-02 -1.371721e-05 -6.847567e-03
156            2.142300e-01 2.529758e-03 3.259021e-01 1.147892e-01 2.543475e-03 3.327497e-01 9.944084e-02 -1.371702e-05 -6.847609e-03
157            2.142312e-01 2.529401e-03 3.259074e-01 1.147903e-01 2.543118e-03 3.327550e-01 9.944084e-02 -1.371668e-05 -6.847646e-03
158            2.142321e-01 2.529073e-03 3.259117e-01 1.147913e-01 2.542789e-03 3.327594e-01 9.944084e-02 -1.371620e-05 -6.847679e-03
159            2.142329e-01 2.528765e-03 3.259152e-01 1.147921e-01 2.542481e-03 3.327629e-01 9.944084e-02 -1.371558e-05 -6.847709e-03
160            2.142336e-01 2.528467e-03 3.259182e-01 1.147928e-01 2.542182e-03 3.327660e-01 9.944085e-02 -1.371483e-05 -6.847735e-03
161            2.142343e-01 2.528171e-03 3.259209e-01 1.147934e-01 2.541885e-03 3.327686e-01 9.944085e-02 -1.371398e-05 -6.847758e-03
162            2.142349e-01 2.527875e-03 3.259232e-01 1.147940e-01 2.541588e-03 3.327710e-01 9.944086e-02 -1.371305e-05 -6.847778e-03
163            2.142354e-01 2.527575e-03 3.259254e-01 1.147946e-01 2.541288e-03 3.327732e-01 9.944087e-02 -1.371207e-05 -6.847794e-03
164            2.142360e-01 2.527271e-03 3.259274e-01 1.147951e-01 2.540983e-03 3.327752e-01 9.944089e-02 -1.371108e-05 -6.847808e-03
165            2.142366e-01 2.526965e-03 3.259293e-01 1.147957e-01 2.540675e-03 3.327771e-01 9.944090e-02 -1.371012e-05 -6.847820e-03
166            2.142371e-01 2.526670e-03 3.259309e-01 1.147962e-01 2.540380e-03 3.327787e-01 9.944091e-02 -1.370918e-05 -6.847829e-03
167            2.142375e-01 2.526403e-03 3.259321e-01 1.147966e-01 2.540111e-03 3.327799e-01 9.944093e-02 -1.370827e-05 -6.847837e-03
