# Force       
# CofR        : (0.000000e+00 0.000000e+00 0.000000e+00)
#
# Time        	total_x total_y total_z	pressure_x pressure_y pressure_z	viscous_x viscous_y viscous_z
1              1.475114e+00 8.235558e-02 2.506924e+00 1.334713e+00 8.232295e-02 2.506479e+00 1.404014e-01 3.263181e-05 4.447050e-04
2              1.905728e+00 1.125943e-01 3.377883e+00 1.771074e+00 1.126104e-01 3.380938e+00 1.346538e-01 -1.610824e-05 -3.055370e-03
3              1.795976e+00 1.057968e-01 3.175072e+00 1.665266e+00 1.058932e-01 3.181663e+00 1.307100e-01 -9.633574e-05 -6.590364e-03
4              1.374166e+00 7.803189e-02 2.332500e+00 1.246382e+00 7.818633e-02 2.341573e+00 1.277838e-01 -1.544387e-04 -9.072606e-03
5              8.382313e-01 4.297178e-02 1.252676e+00 7.125834e-01 4.315678e-02 1.262829e+00 1.256478e-01 -1.850038e-04 -1.015344e-02
6              3.424909e-01 1.133568e-02 2.590680e-01 2.183398e-01 1.152896e-02 2.690120e-01 1.241511e-01 -1.932722e-04 -9.943937e-03
7              -1.750052e-02 -1.059400e-02 -4.433933e-01 -1.406068e-01 -1.040735e-02 -4.345637e-01 1.231063e-01 -1.866479e-04 -8.829568e-03
8              -2.052650e-01 -2.088034e-02 -7.757652e-01 -3.275708e-01 -2.070946e-02 -7.684689e-01 1.223058e-01 -1.708841e-04 -7.296226e-03
9              -2.279886e-01 -2.164483e-02 -7.660304e-01 -3.495646e-01 -2.149416e-02 -7.602398e-01 1.215759e-01 -1.506655e-04 -5.790535e-03
10             -1.551297e-01 -1.638124e-02 -5.576224e-01 -2.759010e-01 -1.625103e-02 -5.529884e-01 1.207713e-01 -1.302048e-04 -4.633997e-03
11             -3.133537e-02 -8.062008e-03 -2.452568e-01 -1.511408e-01 -7.950330e-03 -2.412821e-01 1.198054e-01 -1.116781e-04 -3.974643e-03
12             1.013112e-01 5.854701e-04 7.611031e-02 -1.736595e-02 6.815607e-04 7.991857e-02 1.186772e-01 -9.609061e-05 -3.808257e-03
13             2.117125e-01 7.618566e-03 3.354225e-01 9.427480e-02 7.702158e-03 3.394410e-01 1.174377e-01 -8.359196e-05 -4.018468e-03
14             2.831354e-01 1.206588e-02 4.943138e-01 1.669730e-01 1.213997e-02 4.987483e-01 1.161624e-01 -7.409004e-05 -4.434547e-03
15             3.117870e-01 1.384114e-02 5.457122e-01 1.968631e-01 1.390841e-02 5.505992e-01 1.149239e-01 -6.726483e-05 -4.887002e-03
16             3.072632e-01 1.365356e-02 5.173253e-01 1.934880e-01 1.371599e-02 5.225715e-01 1.137751e-01 -6.243479e-05 -5.246269e-03
17             2.834489e-01 1.222871e-02 4.418248e-01 1.706981e-01 1.228770e-02 4.472672e-01 1.127508e-01 -5.898820e-05 -5.442391e-03
18             2.509470e-01 1.025693e-02 3.461277e-01 1.390880e-01 1.031328e-02 3.515916e-01 1.118590e-01 -5.634621e-05 -5.463895e-03
19             2.192853e-01 8.360125e-03 2.560241e-01 1.082003e-01 8.414007e-03 2.613666e-01 1.110850e-01 -5.388234e-05 -5.342474e-03
20             1.948354e-01 6.930799e-03 1.893010e-01 8.443065e-02 6.981842e-03 1.944344e-01 1.104048e-01 -5.104305e-05 -5.133425e-03
21             1.803144e-01 6.111497e-03 1.536823e-01 7.052520e-02 6.158845e-03 1.585785e-01 1.097892e-01 -4.734772e-05 -4.896187e-03
22             1.751807e-01 5.829145e-03 1.468690e-01 6.596635e-02 5.871763e-03 1.515493e-01 1.092144e-01 -4.261819e-05 -4.680306e-03
23             1.764474e-01 5.915680e-03 1.589604e-01 6.778466e-02 5.952738e-03 1.634771e-01 1.086627e-01 -3.705741e-05 -4.516736e-03
24             1.812225e-01 6.218565e-03 1.814019e-01 7.310081e-02 6.249615e-03 1.858175e-01 1.081216e-01 -3.105063e-05 -4.415628e-03
25             1.870329e-01 6.575684e-03 2.064663e-01 7.944477e-02 6.600684e-03 2.108370e-01 1.075882e-01 -2.500051e-05 -4.370712e-03
26             1.921064e-01 6.858263e-03 2.278555e-01 8.501971e-02 6.877564e-03 2.322204e-01 1.070867e-01 -1.930072e-05 -4.364962e-03
27             1.953542e-01 6.994176e-03 2.417544e-01 8.875214e-02 7.008395e-03 2.461325e-01 1.066020e-01 -1.421963e-05 -4.378117e-03
28             1.965222e-01 6.976957e-03 2.471631e-01 9.038262e-02 6.987006e-03 2.515548e-01 1.061396e-01 -1.004930e-05 -4.391742e-03
29             1.959649e-01 6.849503e-03 2.455432e-01 9.026273e-02 6.856261e-03 2.499358e-01 1.057021e-01 -6.757418e-06 -4.392611e-03
30             1.942977e-01 6.645830e-03 2.394403e-01 8.900598e-02 6.650282e-03 2.438147e-01 1.052917e-01 -4.452730e-06 -4.374448e-03
31             1.921095e-01 6.391950e-03 2.309825e-01 8.720087e-02 6.394951e-03 2.353199e-01 1.049086e-01 -3.000959e-06 -4.337393e-03
32             1.899060e-01 6.133099e-03 2.221073e-01 8.535465e-02 6.135209e-03 2.263934e-01 1.045514e-01 -2.110411e-06 -4.286069e-03
33             1.880398e-01 5.907296e-03 2.146078e-01 8.382199e-02 5.909194e-03 2.188349e-01 1.042178e-01 -1.898280e-06 -4.227041e-03
34             1.866360e-01 5.736186e-03 2.091165e-01 8.273114e-02 5.738032e-03 2.132842e-01 1.039049e-01 -1.846311e-06 -4.167774e-03
35             1.856638e-01 5.624199e-03 2.056146e-01 8.205373e-02 5.626061e-03 2.097282e-01 1.036101e-01 -1.861815e-06 -4.113619e-03
36             1.850111e-01 5.564365e-03 2.037594e-01 8.168020e-02 5.566302e-03 2.078271e-01 1.033309e-01 -1.936980e-06 -4.067620e-03
37             1.845561e-01 5.545925e-03 2.028355e-01 8.149061e-02 5.547875e-03 2.068660e-01 1.030655e-01 -1.949422e-06 -4.030535e-03
38             1.841850e-01 5.547547e-03 2.022472e-01 8.137190e-02 5.549591e-03 2.062477e-01 1.028131e-01 -2.043548e-06 -4.000567e-03
39             1.838076e-01 5.550942e-03 2.014993e-01 8.123478e-02 5.553167e-03 2.054747e-01 1.025728e-01 -2.225686e-06 -3.975398e-03
40             1.833806e-01 5.542804e-03 2.004986e-01 8.103617e-02 5.545319e-03 2.044509e-01 1.023444e-01 -2.514913e-06 -3.952369e-03
41             1.829010e-01 5.518306e-03 1.991079e-01 8.077342e-02 5.521226e-03 2.030379e-01 1.021276e-01 -2.920028e-06 -3.930033e-03
42             1.823954e-01 5.478155e-03 1.973570e-01 8.047294e-02 5.481585e-03 2.012640e-01 1.019225e-01 -3.430583e-06 -3.907082e-03
43             1.818814e-01 5.431194e-03 1.952968e-01 8.015219e-02 5.435236e-03 1.991828e-01 1.017292e-01 -4.042440e-06 -3.885997e-03
44             1.813884e-01 5.381162e-03 1.931282e-01 7.984117e-02 5.385914e-03 1.969915e-01 1.015473e-01 -4.751795e-06 -3.863351e-03
45             1.809312e-01 5.330839e-03 1.909881e-01 7.955490e-02 5.336381e-03 1.948276e-01 1.013763e-01 -5.541687e-06 -3.839499e-03
46             1.805149e-01 5.282185e-03 1.889485e-01 7.929922e-02 5.288572e-03 1.927636e-01 1.012157e-01 -6.386738e-06 -3.815070e-03
47             1.801377e-01 5.236451e-03 1.870157e-01 7.907270e-02 5.243731e-03 1.908065e-01 1.010650e-01 -7.280228e-06 -3.790763e-03
48             1.798008e-01 5.196509e-03 1.852478e-01 7.887725e-02 5.204715e-03 1.890150e-01 1.009236e-01 -8.205613e-06 -3.767187e-03
49             1.795080e-01 5.165467e-03 1.837549e-01 7.871705e-02 5.174596e-03 1.874997e-01 1.007910e-01 -9.128821e-06 -3.744771e-03
50             1.792550e-01 5.143192e-03 1.825371e-01 7.858833e-02 5.153243e-03 1.862609e-01 1.006667e-01 -1.005127e-05 -3.723732e-03
51             1.790320e-01 5.127581e-03 1.815002e-01 7.848180e-02 5.138539e-03 1.852043e-01 1.005502e-01 -1.095843e-05 -3.704116e-03
52             1.788260e-01 5.116212e-03 1.805181e-01 7.838503e-02 5.128069e-03 1.842039e-01 1.004410e-01 -1.185746e-05 -3.685807e-03
53             1.786279e-01 5.107466e-03 1.795065e-01 7.828895e-02 5.120195e-03 1.831752e-01 1.003389e-01 -1.272891e-05 -3.668629e-03
54             1.784320e-01 5.100349e-03 1.784235e-01 7.818852e-02 5.113931e-03 1.820759e-01 1.002435e-01 -1.358199e-05 -3.652351e-03
55             1.782345e-01 5.094289e-03 1.772440e-01 7.808002e-02 5.108706e-03 1.808808e-01 1.001545e-01 -1.441624e-05 -3.636764e-03
56             1.780323e-01 5.089060e-03 1.759543e-01 7.796078e-02 5.104282e-03 1.795760e-01 1.000715e-01 -1.522226e-05 -3.621714e-03
57             1.778345e-01 5.084872e-03 1.746424e-01 7.784016e-02 5.100870e-03 1.782495e-01 9.999438e-02 -1.599874e-05 -3.607094e-03
58             1.776416e-01 5.081949e-03 1.734281e-01 7.773143e-02 5.098737e-03 1.770203e-01 9.991013e-02 -1.678762e-05 -3.592187e-03
59             1.774710e-01 5.080325e-03 1.723600e-01 7.763862e-02 5.097856e-03 1.759377e-01 9.983241e-02 -1.753126e-05 -3.577694e-03
60             1.773191e-01 5.079767e-03 1.714114e-01 7.755787e-02 5.097992e-03 1.749751e-01 9.976119e-02 -1.822484e-05 -3.563666e-03
61             1.771790e-01 5.080149e-03 1.705241e-01 7.748286e-02 5.099009e-03 1.740743e-01 9.969619e-02 -1.885930e-05 -3.550174e-03
62             1.770472e-01 5.081453e-03 1.696603e-01 7.741015e-02 5.100900e-03 1.731976e-01 9.963709e-02 -1.944628e-05 -3.537269e-03
63             1.769220e-01 5.083730e-03 1.688021e-01 7.733862e-02 5.103714e-03 1.723271e-01 9.958343e-02 -1.998463e-05 -3.524994e-03
64             1.768026e-01 5.087071e-03 1.679388e-01 7.726777e-02 5.107541e-03 1.714522e-01 9.953482e-02 -2.046997e-05 -3.513373e-03
65             1.766879e-01 5.091623e-03 1.670615e-01 7.719704e-02 5.112527e-03 1.705639e-01 9.949086e-02 -2.090336e-05 -3.502405e-03
66             1.765788e-01 5.097445e-03 1.661817e-01 7.712763e-02 5.118733e-03 1.696738e-01 9.945120e-02 -2.128829e-05 -3.492079e-03
67             1.764794e-01 5.104253e-03 1.653467e-01 7.706391e-02 5.125876e-03 1.688291e-01 9.941549e-02 -2.162282e-05 -3.482360e-03
68             1.763836e-01 5.113051e-03 1.645434e-01 7.700088e-02 5.134958e-03 1.680166e-01 9.938273e-02 -2.190709e-05 -3.473225e-03
69             1.762952e-01 5.122742e-03 1.637955e-01 7.694185e-02 5.144892e-03 1.672601e-01 9.935338e-02 -2.214993e-05 -3.464518e-03
70             1.762142e-01 5.132713e-03 1.630982e-01 7.688708e-02 5.155060e-03 1.665544e-01 9.932714e-02 -2.234748e-05 -3.456215e-03
71             1.761474e-01 5.141703e-03 1.624888e-01 7.684320e-02 5.164205e-03 1.659371e-01 9.930422e-02 -2.250211e-05 -3.448294e-03
72             1.760900e-01 5.150171e-03 1.619382e-01 7.680619e-02 5.172784e-03 1.653791e-01 9.928378e-02 -2.261299e-05 -3.440864e-03
73             1.760380e-01 5.158493e-03 1.614217e-01 7.677245e-02 5.181175e-03 1.648556e-01 9.926555e-02 -2.268213e-05 -3.433924e-03
74             1.759885e-01 5.166901e-03 1.609212e-01 7.673916e-02 5.189614e-03 1.643486e-01 9.924933e-02 -2.271294e-05 -3.427459e-03
75             1.759321e-01 5.175984e-03 1.603789e-01 7.669754e-02 5.198691e-03 1.638003e-01 9.923459e-02 -2.270704e-05 -3.421460e-03
76             1.758716e-01 5.185351e-03 1.598135e-01 7.665004e-02 5.208022e-03 1.632293e-01 9.922152e-02 -2.267112e-05 -3.415800e-03
77             1.758107e-01 5.194641e-03 1.592557e-01 7.660069e-02 5.217249e-03 1.626662e-01 9.920998e-02 -2.260768e-05 -3.410450e-03
78             1.757537e-01 5.203584e-03 1.587383e-01 7.655394e-02 5.226104e-03 1.621436e-01 9.919980e-02 -2.251993e-05 -3.405391e-03
79             1.757034e-01 5.212082e-03 1.582793e-01 7.651261e-02 5.234494e-03 1.616799e-01 9.919083e-02 -2.241178e-05 -3.400619e-03
80             1.756600e-01 5.220192e-03 1.578780e-01 7.647709e-02 5.242479e-03 1.612742e-01 9.918293e-02 -2.228710e-05 -3.396132e-03
81             1.756222e-01 5.228038e-03 1.575225e-01 7.644621e-02 5.250187e-03 1.609145e-01 9.917598e-02 -2.214871e-05 -3.391935e-03
82             1.755934e-01 5.235949e-03 1.572335e-01 7.642342e-02 5.257949e-03 1.606215e-01 9.917002e-02 -2.199990e-05 -3.388012e-03
83             1.755704e-01 5.243908e-03 1.569842e-01 7.640496e-02 5.265748e-03 1.603687e-01 9.916544e-02 -2.183991e-05 -3.384505e-03
84             1.755492e-01 5.251771e-03 1.567545e-01 7.638781e-02 5.273448e-03 1.601359e-01 9.916137e-02 -2.167683e-05 -3.381320e-03
85             1.755230e-01 5.258970e-03 1.565003e-01 7.636534e-02 5.280481e-03 1.598788e-01 9.915761e-02 -2.151161e-05 -3.378448e-03
86             1.754929e-01 5.265469e-03 1.562303e-01 7.633866e-02 5.286814e-03 1.596061e-01 9.915426e-02 -2.134449e-05 -3.375787e-03
87             1.754609e-01 5.271365e-03 1.559571e-01 7.630959e-02 5.292541e-03 1.593305e-01 9.915127e-02 -2.117655e-05 -3.373308e-03
88             1.754290e-01 5.276800e-03 1.556964e-01 7.628038e-02 5.297810e-03 1.590674e-01 9.914861e-02 -2.100956e-05 -3.370994e-03
89             1.753994e-01 5.281920e-03 1.554619e-01 7.625312e-02 5.302765e-03 1.588308e-01 9.914623e-02 -2.084527e-05 -3.368835e-03
90             1.753732e-01 5.286848e-03 1.552611e-01 7.622906e-02 5.307533e-03 1.586279e-01 9.914412e-02 -2.068550e-05 -3.366829e-03
91             1.753506e-01 5.291677e-03 1.550932e-01 7.620834e-02 5.312209e-03 1.584582e-01 9.914224e-02 -2.053186e-05 -3.364978e-03
92             1.753340e-01 5.296940e-03 1.549728e-01 7.619336e-02 5.317325e-03 1.583360e-01 9.914062e-02 -2.038477e-05 -3.363271e-03
93             1.753209e-01 5.302388e-03 1.548828e-01 7.618175e-02 5.322634e-03 1.582446e-01 9.913915e-02 -2.024683e-05 -3.361759e-03
94             1.753094e-01 5.307772e-03 1.548096e-01 7.617155e-02 5.327891e-03 1.581700e-01 9.913783e-02 -2.011859e-05 -3.360438e-03
95             1.752981e-01 5.312883e-03 1.547438e-01 7.616142e-02 5.332884e-03 1.581031e-01 9.913664e-02 -2.000033e-05 -3.359293e-03
96             1.752861e-01 5.317579e-03 1.546801e-01 7.615059e-02 5.337471e-03 1.580384e-01 9.913556e-02 -1.989196e-05 -3.358303e-03
97             1.752734e-01 5.321796e-03 1.546165e-01 7.613878e-02 5.341590e-03 1.579740e-01 9.913459e-02 -1.979324e-05 -3.357447e-03
98             1.752598e-01 5.325540e-03 1.545535e-01 7.612613e-02 5.345244e-03 1.579103e-01 9.913371e-02 -1.970394e-05 -3.356705e-03
99             1.752461e-01 5.328847e-03 1.544938e-01 7.611318e-02 5.348471e-03 1.578499e-01 9.913293e-02 -1.962382e-05 -3.356060e-03
100            1.752329e-01 5.331782e-03 1.544405e-01 7.610063e-02 5.351335e-03 1.577960e-01 9.913222e-02 -1.955279e-05 -3.355499e-03
101            1.752206e-01 5.334436e-03 1.543959e-01 7.608905e-02 5.353927e-03 1.577509e-01 9.913159e-02 -1.949082e-05 -3.355012e-03
102            1.752097e-01 5.336906e-03 1.543605e-01 7.607865e-02 5.356344e-03 1.577150e-01 9.913103e-02 -1.943773e-05 -3.354594e-03
103            1.751999e-01 5.339279e-03 1.543338e-01 7.606940e-02 5.358673e-03 1.576880e-01 9.913053e-02 -1.939328e-05 -3.354242e-03
104            1.751912e-01 5.341611e-03 1.543150e-01 7.606116e-02 5.360968e-03 1.576690e-01 9.913009e-02 -1.935722e-05 -3.353954e-03
105            1.751864e-01 5.343105e-03 1.543077e-01 7.605674e-02 5.362435e-03 1.576614e-01 9.912969e-02 -1.933014e-05 -3.353717e-03
106            1.751786e-01 5.345725e-03 1.543011e-01 7.604925e-02 5.365034e-03 1.576546e-01 9.912934e-02 -1.930906e-05 -3.353542e-03
107            1.751741e-01 5.347381e-03 1.542996e-01 7.604503e-02 5.366678e-03 1.576530e-01 9.912903e-02 -1.929699e-05 -3.353422e-03
108            1.751668e-01 5.350183e-03 1.543041e-01 7.603807e-02 5.369473e-03 1.576575e-01 9.912876e-02 -1.928960e-05 -3.353355e-03
109            1.751602e-01 5.352799e-03 1.543133e-01 7.603173e-02 5.372088e-03 1.576667e-01 9.912851e-02 -1.928863e-05 -3.353342e-03
110            1.751544e-01 5.355144e-03 1.543262e-01 7.602613e-02 5.374436e-03 1.576796e-01 9.912829e-02 -1.929253e-05 -3.353370e-03
111            1.751494e-01 5.357161e-03 1.543416e-01 7.602135e-02 5.376462e-03 1.576950e-01 9.912810e-02 -1.930084e-05 -3.353434e-03
112            1.751453e-01 5.358840e-03 1.543581e-01 7.601740e-02 5.378153e-03 1.577116e-01 9.912792e-02 -1.931311e-05 -3.353529e-03
113            1.751420e-01 5.360226e-03 1.543749e-01 7.601419e-02 5.379555e-03 1.577285e-01 9.912778e-02 -1.932892e-05 -3.353650e-03
114            1.751399e-01 5.360914e-03 1.543822e-01 7.601229e-02 5.380262e-03 1.577360e-01 9.912765e-02 -1.934850e-05 -3.353793e-03
115            1.751375e-01 5.362159e-03 1.544034e-01 7.600992e-02 5.381529e-03 1.577574e-01 9.912754e-02 -1.936958e-05 -3.353954e-03
116            1.751354e-01 5.363338e-03 1.544262e-01 7.600795e-02 5.382732e-03 1.577803e-01 9.912745e-02 -1.939310e-05 -3.354132e-03
117            1.751337e-01 5.364454e-03 1.544500e-01 7.600637e-02 5.383872e-03 1.578043e-01 9.912737e-02 -1.941792e-05 -3.354323e-03
118            1.751325e-01 5.365502e-03 1.544745e-01 7.600515e-02 5.384945e-03 1.578290e-01 9.912731e-02 -1.944367e-05 -3.354524e-03
119            1.751315e-01 5.366477e-03 1.544994e-01 7.600425e-02 5.385947e-03 1.578541e-01 9.912726e-02 -1.946997e-05 -3.354733e-03
120            1.751309e-01 5.367376e-03 1.545246e-01 7.600364e-02 5.386873e-03 1.578796e-01 9.912722e-02 -1.949651e-05 -3.354948e-03
121            1.751305e-01 5.368196e-03 1.545500e-01 7.600329e-02 5.387719e-03 1.579052e-01 9.912719e-02 -1.952300e-05 -3.355167e-03
122            1.751303e-01 5.368928e-03 1.545753e-01 7.600315e-02 5.388477e-03 1.579307e-01 9.912716e-02 -1.954917e-05 -3.355388e-03
123            1.751303e-01 5.369556e-03 1.545995e-01 7.600317e-02 5.389131e-03 1.579551e-01 9.912715e-02 -1.957481e-05 -3.355608e-03
124            1.751304e-01 5.370075e-03 1.546219e-01 7.600327e-02 5.389675e-03 1.579777e-01 9.912714e-02 -1.959977e-05 -3.355828e-03
125            1.751306e-01 5.370493e-03 1.546424e-01 7.600342e-02 5.390117e-03 1.579984e-01 9.912714e-02 -1.962388e-05 -3.356044e-03
126            1.751308e-01 5.370831e-03 1.546614e-01 7.600364e-02 5.390478e-03 1.580177e-01 9.912715e-02 -1.964703e-05 -3.356257e-03
127            1.751311e-01 5.371108e-03 1.546798e-01 7.600394e-02 5.390777e-03 1.580362e-01 9.912716e-02 -1.966908e-05 -3.356464e-03
128            1.751315e-01 5.371337e-03 1.546978e-01 7.600433e-02 5.391027e-03 1.580544e-01 9.912717e-02 -1.968993e-05 -3.356665e-03
129            1.751320e-01 5.371527e-03 1.547156e-01 7.600482e-02 5.391236e-03 1.580724e-01 9.912719e-02 -1.970951e-05 -3.356859e-03
130            1.751326e-01 5.371681e-03 1.547332e-01 7.600539e-02 5.391409e-03 1.580903e-01 9.912721e-02 -1.972775e-05 -3.357045e-03
131            1.751333e-01 5.371803e-03 1.547507e-01 7.600605e-02 5.391548e-03 1.581080e-01 9.912724e-02 -1.974465e-05 -3.357223e-03
132            1.751341e-01 5.371894e-03 1.547680e-01 7.600679e-02 5.391654e-03 1.581254e-01 9.912727e-02 -1.976019e-05 -3.357392e-03
133            1.751349e-01 5.371955e-03 1.547850e-01 7.600761e-02 5.391729e-03 1.581426e-01 9.912730e-02 -1.977439e-05 -3.357551e-03
134            1.751358e-01 5.371982e-03 1.548011e-01 7.600847e-02 5.391769e-03 1.581588e-01 9.912733e-02 -1.978729e-05 -3.357702e-03
135            1.751366e-01 5.371972e-03 1.548155e-01 7.600929e-02 5.391771e-03 1.581733e-01 9.912736e-02 -1.979896e-05 -3.357843e-03
136            1.751374e-01 5.371929e-03 1.548277e-01 7.601002e-02 5.391739e-03 1.581857e-01 9.912739e-02 -1.980947e-05 -3.357975e-03
137            1.751381e-01 5.371863e-03 1.548382e-01 7.601068e-02 5.391682e-03 1.581963e-01 9.912743e-02 -1.981887e-05 -3.358099e-03
138            1.751388e-01 5.371781e-03 1.548476e-01 7.601130e-02 5.391608e-03 1.582058e-01 9.912746e-02 -1.982725e-05 -3.358214e-03
139            1.751394e-01 5.371687e-03 1.548564e-01 7.601193e-02 5.391522e-03 1.582147e-01 9.912750e-02 -1.983465e-05 -3.358320e-03
140            1.751401e-01 5.371587e-03 1.548648e-01 7.601257e-02 5.391428e-03 1.582232e-01 9.912753e-02 -1.984114e-05 -3.358417e-03
141            1.751408e-01 5.371479e-03 1.548729e-01 7.601323e-02 5.391326e-03 1.582314e-01 9.912757e-02 -1.984677e-05 -3.358506e-03
142            1.751415e-01 5.371365e-03 1.548809e-01 7.601391e-02 5.391216e-03 1.582395e-01 9.912760e-02 -1.985162e-05 -3.358587e-03
143            1.751423e-01 5.371244e-03 1.548887e-01 7.601462e-02 5.391099e-03 1.582474e-01 9.912764e-02 -1.985577e-05 -3.358661e-03
144            1.751430e-01 5.371116e-03 1.548961e-01 7.601531e-02 5.390975e-03 1.582549e-01 9.912767e-02 -1.985927e-05 -3.358728e-03
145            1.751437e-01 5.370983e-03 1.549027e-01 7.601595e-02 5.390845e-03 1.582615e-01 9.912770e-02 -1.986220e-05 -3.358787e-03
146            1.751442e-01 5.370851e-03 1.549082e-01 7.601650e-02 5.390716e-03 1.582670e-01 9.912773e-02 -1.986461e-05 -3.358841e-03
147            1.751447e-01 5.370723e-03 1.549126e-01 7.601696e-02 5.390589e-03 1.582715e-01 9.912777e-02 -1.986657e-05 -3.358889e-03
148            1.751449e-01 5.370655e-03 1.549142e-01 7.601712e-02 5.390523e-03 1.582731e-01 9.912780e-02 -1.986803e-05 -3.358933e-03
149            1.751454e-01 5.370517e-03 1.549181e-01 7.601755e-02 5.390386e-03 1.582770e-01 9.912783e-02 -1.986917e-05 -3.358971e-03
150            1.751458e-01 5.370379e-03 1.549216e-01 7.601797e-02 5.390249e-03 1.582806e-01 9.912785e-02 -1.987003e-05 -3.359004e-03
151            1.751460e-01 5.370305e-03 1.549232e-01 7.601815e-02 5.390176e-03 1.582822e-01 9.912788e-02 -1.987054e-05 -3.359034e-03
152            1.751465e-01 5.370158e-03 1.549266e-01 7.601859e-02 5.390029e-03 1.582857e-01 9.912791e-02 -1.987086e-05 -3.359059e-03
153            1.751467e-01 5.370081e-03 1.549281e-01 7.601879e-02 5.389952e-03 1.582872e-01 9.912793e-02 -1.987094e-05 -3.359081e-03
154            1.751472e-01 5.369925e-03 1.549314e-01 7.601925e-02 5.389796e-03 1.582905e-01 9.912796e-02 -1.987094e-05 -3.359099e-03
155            1.751477e-01 5.369781e-03 1.549342e-01 7.601967e-02 5.389652e-03 1.582933e-01 9.912798e-02 -1.987087e-05 -3.359114e-03
156            1.751480e-01 5.369655e-03 1.549363e-01 7.602002e-02 5.389526e-03 1.582954e-01 9.912801e-02 -1.987071e-05 -3.359126e-03
157            1.751482e-01 5.369605e-03 1.549369e-01 7.602014e-02 5.389475e-03 1.582961e-01 9.912803e-02 -1.987035e-05 -3.359136e-03
158            1.751484e-01 5.369501e-03 1.549382e-01 7.602038e-02 5.389371e-03 1.582973e-01 9.912805e-02 -1.986995e-05 -3.359144e-03
159            1.751487e-01 5.369411e-03 1.549390e-01 7.602059e-02 5.389281e-03 1.582982e-01 9.912807e-02 -1.986951e-05 -3.359150e-03
