/*--------------------------------*- C++ -*----------------------------------*\
| =========                 |                                                 |
| \\      /  F ield         | OpenFOAM: The Open Source CFD Toolbox           |
|  \\    /   O peration     | Version:  2512                                  |
|   \\  /    A nd           | Website:  www.openfoam.com                      |
|    \\/     M anipulation  |                                                 |
\*---------------------------------------------------------------------------*/
FoamFile
{
    version     2.0;
    format      ascii;
    arch        "LSB;label=32;scalar=64";
    class       volScalarField;
    location    "100";
    object      p;
}
// * * * * * * * * * * * * * * * * * * * * * * * * * * * * * * * * * * * * * //

dimensions      [0 2 -2 0 0 0 0];

internalField   nonuniform List<scalar> 
229904
(
8.50683e-05
8.49274e-05
8.45694e-05
8.39945e-05
8.3193e-05
8.21328e-05
8.07689e-05
7.90484e-05
7.69087e-05
7.4276e-05
7.10648e-05
6.71783e-05
6.25097e-05
5.69445e-05
5.03649e-05
4.26556e-05
3.37137e-05
2.34603e-05
1.18561e-05
-1.08143e-06
-1.52588e-05
-3.04865e-05
-4.64653e-05
-6.27792e-05
-7.8902e-05
-9.42202e-05
-0.000108075
-0.000119818
-0.000128885
-0.00013486
-0.000137533
-0.000136932
-0.000133312
-0.000127119
-0.000118919
-0.000109331
-9.89513e-05
-8.83075e-05
-7.78298e-05
-6.78413e-05
-5.85626e-05
-5.01252e-05
-4.25879e-05
-3.59547e-05
-3.01904e-05
-2.52347e-05
-2.1013e-05
-1.74446e-05
-1.44487e-05
-1.19479e-05
-9.87111e-06
-8.15434e-06
-6.74163e-06
-5.58485e-06
-4.64313e-06
-3.88208e-06
-3.27266e-06
-2.79025e-06
-2.41373e-06
-2.12479e-06
-1.9074e-06
-1.74741e-06
-1.63214e-06
-1.55014e-06
-1.49089e-06
-1.44476e-06
-1.40302e-06
-1.35805e-06
-1.3036e-06
-1.23515e-06
-1.15004e-06
-1.04779e-06
-9.29893e-07
-7.99816e-07
-6.6241e-07
-5.23479e-07
-3.8887e-07
-2.64103e-07
-1.53969e-07
-6.87093e-08
8.51102e-05
8.49705e-05
8.4616e-05
8.40464e-05
8.32523e-05
8.22015e-05
8.08494e-05
7.91431e-05
7.70202e-05
7.44069e-05
7.12176e-05
6.73552e-05
6.27123e-05
5.71735e-05
5.06194e-05
4.29327e-05
3.40077e-05
2.37621e-05
1.21527e-05
-8.07264e-07
-1.50281e-05
-3.03234e-05
-4.6395e-05
-6.28254e-05
-7.90832e-05
-9.45458e-05
-0.000108541
-0.000120406
-0.000129562
-0.00013558
-0.000138246
-0.000137589
-0.000133873
-0.000127557
-0.000119225
-0.000109507
-9.90123e-05
-8.8274e-05
-7.77247e-05
-6.76866e-05
-5.83778e-05
-4.99264e-05
-4.23874e-05
-3.57614e-05
-3.00101e-05
-2.50709e-05
-2.08672e-05
-1.73171e-05
-1.43388e-05
-1.18546e-05
-9.79273e-06
-8.08928e-06
-6.6882e-06
-5.54143e-06
-4.60824e-06
-3.85436e-06
-3.2509e-06
-2.77334e-06
-2.40061e-06
-2.11447e-06
-1.89895e-06
-1.74e-06
-1.62508e-06
-1.54286e-06
-1.48303e-06
-1.43613e-06
-1.39362e-06
-1.34803e-06
-1.29326e-06
-1.22486e-06
-1.14026e-06
-1.03895e-06
-9.22412e-07
-7.93985e-07
-6.5842e-07
-5.21336e-07
-3.8842e-07
-2.6497e-07
-1.55517e-07
-6.95127e-08
8.51927e-05
8.50557e-05
8.47079e-05
8.4149e-05
8.33694e-05
8.23373e-05
8.10084e-05
7.93302e-05
7.72404e-05
7.46655e-05
7.15195e-05
6.77049e-05
6.31131e-05
5.76266e-05
5.11233e-05
4.34818e-05
3.45909e-05
2.43616e-05
1.27428e-05
-2.60751e-07
-1.45669e-05
-2.99955e-05
-4.62509e-05
-6.29126e-05
-7.94391e-05
-9.51893e-05
-0.000109465
-0.000121575
-0.000130907
-0.000137013
-0.000139665
-0.000138896
-0.000134987
-0.000128427
-0.00011983
-0.000109855
-9.91317e-05
-8.82061e-05
-7.75148e-05
-6.73787e-05
-5.80106e-05
-4.95316e-05
-4.19896e-05
-3.5378e-05
-2.96527e-05
-2.4746e-05
-2.05781e-05
-1.70642e-05
-1.41208e-05
-1.16691e-05
-9.63681e-06
-7.95962e-06
-6.5815e-06
-5.45451e-06
-4.5382e-06
-3.7986e-06
-3.20707e-06
-2.73927e-06
-2.37428e-06
-2.09395e-06
-1.88245e-06
-1.72588e-06
-1.61193e-06
-1.52959e-06
-1.46886e-06
-1.42062e-06
-1.37667e-06
-1.32984e-06
-1.27429e-06
-1.20575e-06
-1.12177e-06
-1.02189e-06
-9.07505e-07
-7.81825e-07
-6.49369e-07
-5.15476e-07
-3.8552e-07
-2.6445e-07
-1.56364e-07
-7.00179e-08
8.53142e-05
8.5181e-05
8.48432e-05
8.43e-05
8.35418e-05
8.25372e-05
8.12425e-05
7.96057e-05
7.75649e-05
7.50465e-05
7.19646e-05
6.82207e-05
6.37046e-05
5.8296e-05
5.18686e-05
4.42948e-05
3.54556e-05
2.5252e-05
1.36209e-05
5.54938e-07
-1.38759e-05
-2.95007e-05
-4.60281e-05
-6.30335e-05
-7.99604e-05
-9.61403e-05
-0.000110837
-0.000123312
-0.000132912
-0.000139149
-0.00014178
-0.000140842
-0.000136644
-0.000129717
-0.000120723
-0.000110364
-9.93007e-05
-8.80974e-05
-7.71968e-05
-6.69169e-05
-5.74625e-05
-4.89442e-05
-4.13988e-05
-3.48095e-05
-2.91233e-05
-2.42654e-05
-2.01506e-05
-1.66903e-05
-1.37987e-05
-1.13951e-05
-9.40644e-06
-7.768e-06
-6.4237e-06
-5.32588e-06
-4.4345e-06
-3.71602e-06
-3.14221e-06
-2.68898e-06
-2.33559e-06
-2.06405e-06
-1.85868e-06
-1.70585e-06
-1.59358e-06
-1.51128e-06
-1.44942e-06
-1.39938e-06
-1.3534e-06
-1.30478e-06
-1.24801e-06
-1.17913e-06
-1.09586e-06
-9.97789e-07
-8.86271e-07
-7.64314e-07
-6.3614e-07
-5.06704e-07
-3.8095e-07
-2.63352e-07
-1.57433e-07
-7.11098e-08
8.54717e-05
8.53436e-05
8.50186e-05
8.44957e-05
8.37653e-05
8.27965e-05
8.15463e-05
7.99633e-05
7.79862e-05
7.55416e-05
7.25434e-05
6.8892e-05
6.44752e-05
5.91691e-05
5.28419e-05
4.53584e-05
3.6589e-05
2.64215e-05
1.47777e-05
1.63342e-06
-1.29574e-05
-2.88368e-05
-4.57196e-05
-6.31763e-05
-8.06313e-05
-9.73804e-05
-0.000112636
-0.0001256
-0.000135555
-0.000141968
-0.00014457
-0.000143406
-0.000138823
-0.000131407
-0.000121885
-0.000111018
-9.95075e-05
-8.79409e-05
-7.6768e-05
-6.63025e-05
-5.6738e-05
-4.81709e-05
-4.06234e-05
-3.4065e-05
-2.84312e-05
-2.36381e-05
-1.95932e-05
-1.62034e-05
-1.33794e-05
-1.10386e-05
-9.10686e-06
-7.51883e-06
-6.21849e-06
-5.15854e-06
-4.29952e-06
-3.6085e-06
-3.05772e-06
-2.62347e-06
-2.28521e-06
-2.02514e-06
-1.82781e-06
-1.67991e-06
-1.56993e-06
-1.4878e-06
-1.42459e-06
-1.37231e-06
-1.32379e-06
-1.27285e-06
-1.21444e-06
-1.14495e-06
-1.06235e-06
-9.66304e-07
-8.58116e-07
-7.40571e-07
-6.17532e-07
-4.93491e-07
-3.72875e-07
-2.59597e-07
-1.5655e-07
-7.08891e-08
8.56615e-05
8.55395e-05
8.52301e-05
8.47318e-05
8.4035e-05
8.31094e-05
8.1913e-05
8.03952e-05
7.84952e-05
7.61403e-05
7.32438e-05
6.97051e-05
6.54097e-05
6.02294e-05
5.40259e-05
4.66547e-05
3.79736e-05
2.78544e-05
1.62e-05
2.96551e-06
-1.18155e-05
-2.80019e-05
-4.53169e-05
-6.33265e-05
-8.1432e-05
-9.88856e-05
-0.000114836
-0.000128409
-0.00013881
-0.000145443
-0.000148009
-0.000146561
-0.000141494
-0.000133468
-0.000123291
-0.000111797
-9.97374e-05
-8.7728e-05
-7.62259e-05
-6.55379e-05
-5.58436e-05
-4.72212e-05
-3.96746e-05
-3.31567e-05
-2.75888e-05
-2.28758e-05
-1.8917e-05
-1.56134e-05
-1.2872e-05
-1.06077e-05
-8.74489e-06
-7.21789e-06
-5.97064e-06
-4.95639e-06
-4.1364e-06
-3.47848e-06
-2.95551e-06
-2.54418e-06
-2.22422e-06
-1.97806e-06
-1.79055e-06
-1.64878e-06
-1.54179e-06
-1.46018e-06
-1.39575e-06
-1.34119e-06
-1.29002e-06
-1.23667e-06
-1.1766e-06
-1.10661e-06
-1.02492e-06
-9.31308e-07
-8.27011e-07
-7.14571e-07
-5.9745e-07
-4.79623e-07
-3.64934e-07
-2.56668e-07
-1.56996e-07
-7.2084e-08
8.58792e-05
8.57643e-05
8.54726e-05
8.50026e-05
8.43444e-05
8.34686e-05
8.23341e-05
8.08914e-05
7.90806e-05
7.68292e-05
7.40506e-05
7.0643e-05
6.6489e-05
6.14561e-05
5.53985e-05
4.81609e-05
3.95868e-05
2.95294e-05
1.78694e-05
4.53719e-06
-1.04582e-05
-2.69964e-05
-4.48122e-05
-6.34675e-05
-8.23383e-05
-0.000100626
-0.000117403
-0.000131703
-0.000142638
-0.000149535
-0.000152057
-0.000150268
-0.00014462
-0.000135865
-0.000124911
-0.000112676
-9.99734e-05
-8.74497e-05
-7.55686e-05
-6.46279e-05
-5.47887e-05
-4.61078e-05
-3.85672e-05
-3.21002e-05
-2.66117e-05
-2.19936e-05
-1.8136e-05
-1.49331e-05
-1.22875e-05
-1.01118e-05
-8.32873e-06
-6.87198e-06
-5.68571e-06
-4.72379e-06
-3.94842e-06
-3.32832e-06
-2.83709e-06
-2.4519e-06
-2.1528e-06
-1.92247e-06
-1.74613e-06
-1.61137e-06
-1.50789e-06
-1.42707e-06
-1.3615e-06
-1.30467e-06
-1.25083e-06
-1.19504e-06
-1.13333e-06
-1.0629e-06
-9.82254e-07
-8.91286e-07
-7.91157e-07
-6.84157e-07
-5.73325e-07
-4.62091e-07
-3.53692e-07
-2.50773e-07
-1.54837e-07
-7.12945e-08
8.61196e-05
8.60125e-05
8.57406e-05
8.53019e-05
8.46864e-05
8.38657e-05
8.27999e-05
8.14407e-05
7.9729e-05
7.75931e-05
7.49462e-05
7.16854e-05
6.76907e-05
6.28244e-05
5.69327e-05
4.98489e-05
4.14003e-05
3.14194e-05
1.97617e-05
6.32926e-06
-8.89764e-06
-2.58236e-05
-4.41985e-05
-6.35818e-05
-8.3322e-05
-0.000102563
-0.000120293
-0.000135434
-0.000146989
-0.000154194
-0.000156664
-0.000154477
-0.000148153
-0.000138554
-0.000126706
-0.000113626
-0.000100197
-8.70978e-05
-7.47971e-05
-6.35803e-05
-5.35867e-05
-4.48475e-05
-3.73199e-05
-3.09149e-05
-2.55188e-05
-2.10095e-05
-1.72664e-05
-1.4177e-05
-1.16391e-05
-9.56232e-06
-7.86803e-06
-6.48929e-06
-5.37051e-06
-4.46643e-06
-3.74031e-06
-3.16197e-06
-2.70581e-06
-2.34954e-06
-2.07356e-06
-1.86085e-06
-1.69704e-06
-1.57032e-06
-1.47115e-06
-1.39175e-06
-1.32558e-06
-1.26698e-06
-1.21094e-06
-1.15318e-06
-1.09024e-06
-1.01976e-06
-9.40514e-07
-8.52504e-07
-7.56818e-07
-6.55488e-07
-5.51128e-07
-4.46622e-07
-3.44598e-07
-2.47069e-07
-1.54846e-07
-7.24495e-08
8.63772e-05
8.62785e-05
8.60277e-05
8.56225e-05
8.5053e-05
8.42915e-05
8.32997e-05
8.20303e-05
8.04257e-05
7.84146e-05
7.59105e-05
7.28094e-05
6.89885e-05
6.43052e-05
5.85972e-05
5.16854e-05
4.338e-05
3.34909e-05
2.1846e-05
8.31583e-06
-7.1522e-06
-2.44919e-05
-4.3472e-05
-6.36518e-05
-8.43522e-05
-0.000104655
-0.000123451
-0.000139541
-0.000151798
-0.000159351
-0.000161762
-0.000159121
-0.000152033
-0.000141483
-0.000128634
-0.000114618
-0.000100391
-8.66662e-05
-7.39153e-05
-6.24072e-05
-5.22552e-05
-4.34615e-05
-3.59555e-05
-2.96237e-05
-2.43324e-05
-1.99441e-05
-1.63273e-05
-1.33619e-05
-1.09412e-05
-8.97167e-06
-7.3732e-06
-6.07834e-06
-5.03187e-06
-4.18953e-06
-3.5159e-06
-2.982e-06
-2.56314e-06
-2.2376e-06
-1.98614e-06
-1.79209e-06
-1.64157e-06
-1.52344e-06
-1.429e-06
-1.35139e-06
-1.28499e-06
-1.22498e-06
-1.16709e-06
-1.10767e-06
-1.04379e-06
-9.73466e-07
-8.9575e-07
-8.1076e-07
-7.19513e-07
-6.23799e-07
-5.25822e-07
-4.27939e-07
-3.32201e-07
-2.40033e-07
-1.51697e-07
-7.11853e-08
8.66457e-05
8.65558e-05
8.63271e-05
8.5957e-05
8.54355e-05
8.4736e-05
8.38216e-05
8.26466e-05
8.11543e-05
7.92747e-05
7.69214e-05
7.39895e-05
7.03537e-05
6.5866e-05
6.03561e-05
5.3632e-05
4.54857e-05
3.57038e-05
2.40843e-05
1.04635e-05
-5.24747e-06
-2.30158e-05
-4.26332e-05
-6.3662e-05
-8.53959e-05
-0.000106852
-0.000126814
-0.000143948
-0.000156981
-0.000164921
-0.000167266
-0.000164122
-0.000156187
-0.00014459
-0.000130649
-0.00011562
-0.000100539
-8.61526e-05
-7.29323e-05
-6.11261e-05
-5.08172e-05
-4.1976e-05
-3.45016e-05
-2.8254e-05
-2.30785e-05
-1.88214e-05
-1.53402e-05
-1.25071e-05
-1.02106e-05
-8.35456e-06
-6.85701e-06
-5.65016e-06
-4.67934e-06
-3.90147e-06
-3.28262e-06
-2.79512e-06
-2.41524e-06
-2.12186e-06
-1.89609e-06
-1.72166e-06
-1.5852e-06
-1.47634e-06
-1.3873e-06
-1.31217e-06
-1.24625e-06
-1.18553e-06
-1.12644e-06
-1.0659e-06
-1.00147e-06
-9.31545e-07
-8.55426e-07
-7.73359e-07
-6.8632e-07
-5.95883e-07
-5.0388e-07
-4.12185e-07
-3.2231e-07
-2.35143e-07
-1.50424e-07
-7.15829e-08
8.6919e-05
8.68379e-05
8.66317e-05
8.62974e-05
8.58248e-05
8.51886e-05
8.43533e-05
8.32747e-05
8.18977e-05
8.01532e-05
7.79552e-05
7.51982e-05
7.17544e-05
6.74711e-05
6.21695e-05
5.56451e-05
4.76716e-05
3.8011e-05
2.64307e-05
1.27306e-05
-3.21753e-06
-2.14178e-05
-4.16889e-05
-6.36001e-05
-8.64197e-05
-0.000109098
-0.000130306
-0.000148564
-0.000162437
-0.000170798
-0.000173071
-0.00016938
-0.000160528
-0.000147806
-0.000132698
-0.0001166
-0.000100628
-8.556e-05
-7.18632e-05
-5.97604e-05
-4.93016e-05
-4.04224e-05
-3.29898e-05
-2.68364e-05
-2.17855e-05
-1.76673e-05
-1.43278e-05
-1.16322e-05
-9.46423e-06
-7.72479e-06
-6.3306e-06
-5.2135e-06
-4.31948e-06
-3.60687e-06
-3.04335e-06
-2.60268e-06
-2.26212e-06
-2.0011e-06
-1.80112e-06
-1.64631e-06
-1.52392e-06
-1.42442e-06
-1.34097e-06
-1.26867e-06
-1.20371e-06
-1.14282e-06
-1.08307e-06
-1.02188e-06
-9.57222e-07
-8.87854e-07
-8.13336e-07
-7.34058e-07
-6.50991e-07
-5.6554e-07
-4.79217e-07
-3.93463e-07
-3.09307e-07
-2.27163e-07
-1.46374e-07
-7.00643e-08
8.71904e-05
8.71182e-05
8.69344e-05
8.66356e-05
8.62116e-05
8.56384e-05
8.4882e-05
8.38998e-05
8.2638e-05
8.10289e-05
7.89869e-05
7.64063e-05
7.31571e-05
6.9082e-05
6.39943e-05
5.7677e-05
4.98861e-05
4.0359e-05
2.88317e-05
1.50666e-05
-1.10561e-06
-1.97292e-05
-4.06538e-05
-6.34592e-05
-8.73914e-05
-0.000111334
-0.000133844
-0.000153283
-0.000168044
-0.000176852
-0.00017905
-0.000174779
-0.000164957
-0.000151052
-0.00013473
-0.000117529
-0.00010065
-8.48978e-05
-7.073e-05
-5.83406e-05
-4.77433e-05
-3.88374e-05
-3.14566e-05
-2.54055e-05
-2.04855e-05
-1.65107e-05
-1.33162e-05
-1.07601e-05
-8.722e-06
-7.10001e-06
-5.80949e-06
-4.78205e-06
-3.96454e-06
-3.31683e-06
-2.80834e-06
-2.41429e-06
-2.11289e-06
-1.88411e-06
-1.70977e-06
-1.57444e-06
-1.46604e-06
-1.37593e-06
-1.2983e-06
-1.22923e-06
-1.16575e-06
-1.10527e-06
-1.04536e-06
-9.83864e-07
-9.19113e-07
-8.50182e-07
-7.76897e-07
-6.99827e-07
-6.19991e-07
-5.38691e-07
-4.57188e-07
-3.76555e-07
-2.974e-07
-2.19729e-07
-1.42548e-07
-6.87769e-08
8.74536e-05
8.73899e-05
8.72279e-05
8.69635e-05
8.65868e-05
8.60748e-05
8.5395e-05
8.45065e-05
8.33572e-05
8.18803e-05
7.99913e-05
7.75841e-05
7.45269e-05
7.06585e-05
6.57847e-05
5.96769e-05
5.20736e-05
4.26885e-05
3.12267e-05
1.7413e-05
1.0358e-06
-1.79911e-05
-3.95512e-05
-6.32389e-05
-8.82817e-05
-0.000113499
-0.000137333
-0.000157983
-0.000173661
-0.000182932
-0.000185054
-0.000180184
-0.000169363
-0.000154245
-0.00013669
-0.000118382
-0.000100604
-8.41827e-05
-6.9562e-05
-5.69034e-05
-4.61827e-05
-3.72619e-05
-2.99413e-05
-2.39977e-05
-1.92111e-05
-1.538e-05
-1.23295e-05
-9.91117e-06
-8.00053e-06
-6.49336e-06
-5.3037e-06
-4.36305e-06
-3.61928e-06
-3.03396e-06
-2.57833e-06
-2.2291e-06
-1.96535e-06
-1.7675e-06
-1.61767e-06
-1.50086e-06
-1.40571e-06
-1.32456e-06
-1.25266e-06
-1.18704e-06
-1.12553e-06
-1.06609e-06
-1.0067e-06
-9.455e-07
-8.81103e-07
-8.1286e-07
-7.40861e-07
-6.65886e-07
-5.89054e-07
-5.11633e-07
-4.347e-07
-3.59029e-07
-2.84866e-07
-2.11852e-07
-1.38681e-07
-6.79543e-08
8.77023e-05
8.76468e-05
8.75051e-05
8.72733e-05
8.69412e-05
8.6487e-05
8.58797e-05
8.50801e-05
8.40373e-05
8.26862e-05
8.0943e-05
7.87015e-05
7.58288e-05
7.21598e-05
6.74938e-05
6.15914e-05
5.41751e-05
4.4936e-05
3.35496e-05
1.97039e-05
3.14571e-06
-1.62538e-05
-3.84139e-05
-6.29468e-05
-8.90663e-05
-0.000115532
-0.000140673
-0.000162529
-0.000179126
-0.000188866
-0.000190914
-0.000185444
-0.000173623
-0.000157298
-0.000138527
-0.00011914
-0.000100495
-8.34392e-05
-6.83958e-05
-5.54922e-05
-4.46658e-05
-3.57415e-05
-2.84872e-05
-2.26531e-05
-1.79984e-05
-1.43076e-05
-1.13963e-05
-9.11049e-06
-7.32205e-06
-5.92452e-06
-4.83076e-06
-3.97229e-06
-3.29807e-06
-2.7715e-06
-2.36569e-06
-2.05877e-06
-1.83059e-06
-1.6619e-06
-1.53503e-06
-1.43539e-06
-1.35241e-06
-1.2794e-06
-1.21271e-06
-1.15032e-06
-1.09077e-06
-1.03248e-06
-9.7371e-07
-9.12791e-07
-8.48533e-07
-7.80523e-07
-7.09116e-07
-6.35331e-07
-5.60446e-07
-4.85765e-07
-4.12262e-07
-3.40485e-07
-2.70388e-07
-2.01323e-07
-1.31811e-07
-6.45353e-08
8.79308e-05
8.78826e-05
8.77597e-05
8.75576e-05
8.72663e-05
8.6865e-05
8.63243e-05
8.56062e-05
8.46614e-05
8.34261e-05
8.18175e-05
7.97296e-05
7.70282e-05
7.35454e-05
6.90748e-05
6.33672e-05
5.61307e-05
4.70358e-05
3.57305e-05
2.18684e-05
5.1565e-06
-1.45755e-05
-3.72832e-05
-6.25989e-05
-8.9727e-05
-0.000117374
-0.000143764
-0.000166779
-0.000184267
-0.000194465
-0.000196443
-0.000190393
-0.000177607
-0.000160123
-0.000140193
-0.000119789
-0.000100338
-8.26988e-05
-6.72735e-05
-5.41543e-05
-4.32407e-05
-3.43225e-05
-2.7137e-05
-2.14094e-05
-1.68803e-05
-1.33211e-05
-1.05395e-05
-8.37645e-06
-6.70086e-06
-5.40419e-06
-4.39826e-06
-3.61464e-06
-3.00351e-06
-2.53011e-06
-2.16946e-06
-1.90099e-06
-1.70524e-06
-1.56312e-06
-1.45709e-06
-1.37295e-06
-1.30086e-06
-1.23518e-06
-1.17331e-06
-1.11416e-06
-1.05691e-06
-1.00032e-06
-9.42822e-07
-8.82831e-07
-8.19269e-07
-7.51907e-07
-6.81339e-07
-6.08837e-07
-5.35875e-07
-4.63848e-07
-3.93688e-07
-3.2578e-07
-2.59839e-07
-1.94951e-07
-1.2935e-07
-6.52441e-08
8.81335e-05
8.80918e-05
8.79854e-05
8.78095e-05
8.75543e-05
8.71997e-05
8.67177e-05
8.60716e-05
8.52137e-05
8.40811e-05
8.2592e-05
8.06409e-05
7.80926e-05
7.4777e-05
7.04827e-05
6.49523e-05
5.78815e-05
4.89225e-05
3.76989e-05
2.38335e-05
6.99679e-06
-1.30201e-05
-3.62074e-05
-6.22187e-05
-9.02529e-05
-0.000118971
-0.000146502
-0.000170587
-0.000188903
-0.00019953
-0.000201448
-0.000194863
-0.000181183
-0.000162634
-0.000141646
-0.000120322
-0.000100151
-8.19986e-05
-6.62423e-05
-5.29407e-05
-4.19587e-05
-3.30538e-05
-2.59357e-05
-2.03073e-05
-1.58928e-05
-1.24524e-05
-9.78704e-06
-7.73368e-06
-6.15861e-06
-4.95155e-06
-4.0233e-06
-3.30553e-06
-2.74962e-06
-2.32267e-06
-2.00144e-06
-1.76661e-06
-1.59922e-06
-1.48023e-06
-1.39214e-06
-1.32107e-06
-1.25787e-06
-1.1979e-06
-1.13961e-06
-1.08276e-06
-1.02709e-06
-9.71665e-07
-9.14965e-07
-8.55428e-07
-7.92019e-07
-7.24641e-07
-6.54108e-07
-5.81946e-07
-5.09853e-07
-4.39356e-07
-3.71401e-07
-3.06275e-07
-2.43517e-07
-1.82032e-07
-1.20014e-07
-5.99622e-08
8.83058e-05
8.82696e-05
8.8177e-05
8.80232e-05
8.77982e-05
8.74829e-05
8.70503e-05
8.64648e-05
8.568e-05
8.4634e-05
8.3246e-05
8.14107e-05
7.89925e-05
7.58194e-05
7.16761e-05
6.62987e-05
5.93723e-05
5.05341e-05
3.93872e-05
2.55279e-05
8.59549e-06
-1.16529e-05
-3.52386e-05
-6.18354e-05
-9.06402e-05
-0.000120278
-0.000148796
-0.000173813
-0.000192855
-0.000203863
-0.000205734
-0.000198682
-0.000184225
-0.000164749
-0.000142849
-0.00012074
-9.99603e-05
-8.13781e-05
-6.53491e-05
-5.19008e-05
-4.08674e-05
-3.19793e-05
-2.49222e-05
-1.93804e-05
-1.50643e-05
-1.17249e-05
-9.15771e-06
-7.19679e-06
-5.70634e-06
-4.57453e-06
-3.71127e-06
-3.04835e-06
-2.53825e-06
-2.14974e-06
-1.86123e-06
-1.65445e-06
-1.51082e-06
-1.41126e-06
-1.33819e-06
-1.27797e-06
-1.22209e-06
-1.1668e-06
-1.11148e-06
-1.0567e-06
-1.00267e-06
-9.48656e-07
-8.93163e-07
-8.3457e-07
-7.71827e-07
-7.04922e-07
-6.34849e-07
-5.63361e-07
-4.92374e-07
-4.23561e-07
-3.57912e-07
-2.95653e-07
-2.36181e-07
-1.78215e-07
-1.19672e-07
-6.24028e-08
8.84437e-05
8.84118e-05
8.83301e-05
8.81935e-05
8.79921e-05
8.77076e-05
8.73137e-05
8.67759e-05
8.60484e-05
8.50705e-05
8.37621e-05
8.2018e-05
7.97026e-05
7.66424e-05
7.26193e-05
6.73642e-05
6.05544e-05
5.18155e-05
4.07343e-05
2.68866e-05
9.88651e-06
-1.0536e-05
-3.4428e-05
-6.14807e-05
-9.08914e-05
-0.000121257
-0.000150564
-0.000176329
-0.000195959
-0.000207279
-0.000209117
-0.000201694
-0.000186614
-0.000166399
-0.000143775
-0.000121046
-9.97912e-05
-8.08771e-05
-6.46397e-05
-5.10816e-05
-4.00126e-05
-3.11412e-05
-2.41346e-05
-1.86625e-05
-1.44242e-05
-1.11642e-05
-8.67392e-06
-6.78521e-06
-5.3608e-06
-4.28763e-06
-3.47482e-06
-2.85421e-06
-2.37917e-06
-2.01994e-06
-1.75627e-06
-1.57076e-06
-1.44507e-06
-1.36004e-06
-1.29795e-06
-1.24533e-06
-1.19416e-06
-1.14146e-06
-1.08743e-06
-1.03329e-06
-9.79672e-07
-9.26009e-07
-8.70782e-07
-8.12296e-07
-7.49461e-07
-6.82313e-07
-6.11987e-07
-5.40432e-07
-4.69757e-07
-4.01779e-07
-3.37547e-07
-2.77254e-07
-2.20204e-07
-1.6502e-07
-1.09658e-07
-5.63407e-08
8.85441e-05
8.85152e-05
8.8441e-05
8.83165e-05
8.81317e-05
8.78686e-05
8.75017e-05
8.6997e-05
8.63096e-05
8.53792e-05
8.41263e-05
8.24461e-05
8.02026e-05
7.72217e-05
7.32832e-05
6.81149e-05
6.13884e-05
5.27215e-05
4.16899e-05
2.78552e-05
1.08139e-05
-9.72309e-06
-3.38213e-05
-6.1185e-05
-9.10125e-05
-0.000121883
-0.00015174
-0.000178031
-0.000198078
-0.000209623
-0.000211444
-0.000203766
-0.000188255
-0.000167527
-0.000144402
-0.000121247
-9.96684e-05
-8.05293e-05
-6.41521e-05
-5.05212e-05
-3.94299e-05
-3.05714e-05
-2.36007e-05
-1.81768e-05
-1.39922e-05
-1.07864e-05
-8.34857e-06
-6.50912e-06
-5.12985e-06
-4.09678e-06
-3.31844e-06
-2.72661e-06
-2.27532e-06
-1.93583e-06
-1.68892e-06
-1.51779e-06
-1.40428e-06
-1.3291e-06
-1.27439e-06
-1.22673e-06
-1.17849e-06
-1.12723e-06
-1.07377e-06
-1.01983e-06
-9.6638e-07
-9.12952e-07
-8.58007e-07
-7.99775e-07
-7.37114e-07
-6.70079e-07
-5.999e-07
-5.28667e-07
-4.5864e-07
-3.91747e-07
-3.29085e-07
-2.70824e-07
-2.16188e-07
-1.63673e-07
-1.10986e-07
-5.96726e-08
8.86049e-05
8.85776e-05
8.85075e-05
8.83894e-05
8.82135e-05
8.7962e-05
8.76096e-05
8.71228e-05
8.64569e-05
8.55521e-05
8.43291e-05
8.26832e-05
8.04785e-05
7.75404e-05
7.36478e-05
6.85267e-05
6.18461e-05
5.32198e-05
4.22178e-05
2.83942e-05
1.13367e-05
-9.25407e-06
-3.34533e-05
-6.09724e-05
-9.1011e-05
-0.00012214
-0.00015228
-0.000178846
-0.000199113
-0.000210782
-0.000212602
-0.000204802
-0.000189076
-0.000168092
-0.000144717
-0.000121351
-9.96107e-05
-8.03605e-05
-6.39143e-05
-5.02479e-05
-3.91459e-05
-3.02943e-05
-2.33417e-05
-1.79421e-05
-1.3784e-05
-1.06051e-05
-8.19318e-06
-6.37813e-06
-5.0213e-06
-4.00823e-06
-3.24699e-06
-2.66926e-06
-2.22935e-06
-1.89908e-06
-1.65979e-06
-1.49506e-06
-1.3868e-06
-1.31561e-06
-1.26354e-06
-1.21716e-06
-1.16901e-06
-1.11702e-06
-1.06238e-06
-1.00713e-06
-9.52461e-07
-8.97984e-07
-8.4216e-07
-7.83171e-07
-7.19841e-07
-6.52234e-07
-5.81634e-07
-5.10223e-07
-4.40351e-07
-3.74018e-07
-3.12347e-07
-2.55488e-07
-2.02611e-07
-1.52165e-07
-1.01941e-07
-5.38479e-08
8.86248e-05
8.85977e-05
8.85282e-05
8.84109e-05
8.82361e-05
8.79859e-05
8.76353e-05
8.71505e-05
8.64871e-05
8.55852e-05
8.43654e-05
8.27233e-05
8.05229e-05
7.75895e-05
7.37022e-05
6.8587e-05
6.19128e-05
5.32933e-05
4.22985e-05
2.84824e-05
1.14325e-05
-9.151e-06
-3.33437e-05
-6.08576e-05
-9.08929e-05
-0.000122022
-0.000152164
-0.000178737
-0.000199014
-0.000210696
-0.000212533
-0.000204749
-0.000189042
-0.000168074
-0.000144713
-0.000121359
-9.96277e-05
-8.03834e-05
-6.39406e-05
-5.02755e-05
-3.91736e-05
-3.03214e-05
-2.33677e-05
-1.79668e-05
-1.38073e-05
-1.06268e-05
-8.21336e-06
-6.39715e-06
-5.03956e-06
-4.02602e-06
-3.26441e-06
-2.68619e-06
-2.24559e-06
-1.91441e-06
-1.67409e-06
-1.50826e-06
-1.39886e-06
-1.32644e-06
-1.27295e-06
-1.22493e-06
-1.17493e-06
-1.12095e-06
-1.06429e-06
-1.00711e-06
-9.5069e-07
-8.94708e-07
-8.37639e-07
-7.77658e-07
-7.13586e-07
-6.45485e-07
-5.74661e-07
-5.03318e-07
-4.33838e-07
-3.68231e-07
-3.07614e-07
-2.52105e-07
-2.00815e-07
-1.52115e-07
-1.03611e-07
-5.67095e-08
8.86038e-05
8.85755e-05
8.85029e-05
8.83807e-05
8.81991e-05
8.79402e-05
8.75784e-05
8.70799e-05
8.63998e-05
8.5478e-05
8.42349e-05
8.2566e-05
8.03353e-05
7.73686e-05
7.34459e-05
6.8295e-05
6.15874e-05
5.29409e-05
4.19309e-05
2.81185e-05
1.10997e-05
-9.41577e-06
-3.34946e-05
-6.08429e-05
-9.06608e-05
-0.00012153
-0.000151395
-0.000177706
-0.000197783
-0.000209368
-0.000211237
-0.00020361
-0.000188151
-0.000167471
-0.000144389
-0.00012127
-9.97178e-05
-8.05964e-05
-6.42292e-05
-5.06026e-05
-3.95116e-05
-3.06512e-05
-2.36773e-05
-1.82495e-05
-1.40602e-05
-1.08495e-05
-8.40702e-06
-6.5638e-06
-5.18184e-06
-4.14692e-06
-3.36696e-06
-2.77314e-06
-2.31919e-06
-1.97639e-06
-1.72573e-06
-1.55063e-06
-1.43297e-06
-1.35329e-06
-1.29354e-06
-1.24017e-06
-1.18555e-06
-1.1275e-06
-1.06717e-06
-1.00664e-06
-9.47168e-07
-8.88457e-07
-8.29036e-07
-7.67131e-07
-7.01591e-07
-6.32484e-07
-5.61094e-07
-4.89592e-07
-4.20316e-07
-3.55229e-07
-2.95397e-07
-2.4089e-07
-1.90778e-07
-1.43413e-07
-9.65004e-08
-5.17676e-08
8.85428e-05
8.85119e-05
8.84327e-05
8.83001e-05
8.81041e-05
8.78264e-05
8.7441e-05
8.69134e-05
8.61981e-05
8.52343e-05
8.39422e-05
8.22167e-05
7.99223e-05
7.68857e-05
7.28886e-05
6.76622e-05
6.08835e-05
5.2178e-05
4.11322e-05
2.7321e-05
1.03575e-05
-1.003e-05
-3.38907e-05
-6.09186e-05
-9.0314e-05
-0.000120678
-0.000149998
-0.000175795
-0.000195475
-0.000206861
-0.000208776
-0.000201436
-0.000186441
-0.000166305
-0.000143751
-0.00012108
-9.98689e-05
-8.09841e-05
-6.47639e-05
-5.12133e-05
-4.01455e-05
-3.12714e-05
-2.42601e-05
-1.87819e-05
-1.45364e-05
-1.12688e-05
-8.77128e-06
-6.87672e-06
-5.44822e-06
-4.37232e-06
-3.55721e-06
-2.93376e-06
-2.45484e-06
-2.09067e-06
-1.82136e-06
-1.62979e-06
-1.49768e-06
-1.40563e-06
-1.33562e-06
-1.27391e-06
-1.2126e-06
-1.14905e-06
-1.08401e-06
-1.0193e-06
-9.56015e-07
-8.93889e-07
-8.31528e-07
-7.67256e-07
-6.99986e-07
-6.29783e-07
-5.57877e-07
-4.86336e-07
-4.17383e-07
-3.52866e-07
-2.93761e-07
-2.40066e-07
-1.90802e-07
-1.44277e-07
-9.80926e-08
-5.3711e-08
8.84436e-05
8.84088e-05
8.83198e-05
8.81714e-05
8.79538e-05
8.7648e-05
8.72271e-05
8.6656e-05
8.58879e-05
8.48616e-05
8.34962e-05
8.16866e-05
7.92974e-05
7.61567e-05
7.20493e-05
6.67113e-05
5.98275e-05
5.10351e-05
3.99364e-05
2.61268e-05
9.24393e-06
-1.09572e-05
-3.45009e-05
-6.10647e-05
-8.98497e-05
-0.000119485
-0.000148023
-0.000173083
-0.000192193
-0.00020329
-0.000205265
-0.000198326
-0.000183982
-0.000164614
-0.000142809
-0.000120779
-0.00010006
-8.15185e-05
-6.55139e-05
-5.2077e-05
-4.10462e-05
-3.21553e-05
-2.50924e-05
-1.95428e-05
-1.52173e-05
-1.18678e-05
-9.29106e-06
-7.32222e-06
-5.82611e-06
-4.69042e-06
-3.82385e-06
-3.15693e-06
-2.64141e-06
-2.24603e-06
-1.94958e-06
-1.73417e-06
-1.58125e-06
-1.47147e-06
-1.38682e-06
-1.31341e-06
-1.24282e-06
-1.17181e-06
-1.10052e-06
-1.03031e-06
-9.62077e-07
-8.95526e-07
-8.29377e-07
-7.62093e-07
-6.92669e-07
-6.21163e-07
-5.48704e-07
-4.77193e-07
-4.08665e-07
-3.44792e-07
-2.86412e-07
-2.33433e-07
-1.84833e-07
-1.38925e-07
-9.34155e-08
-5.0024e-08
8.83092e-05
8.82693e-05
8.81673e-05
8.79984e-05
8.77526e-05
8.74101e-05
8.6943e-05
8.6315e-05
8.54784e-05
8.43706e-05
8.29101e-05
8.09915e-05
7.84799e-05
7.52052e-05
7.0956e-05
6.5475e-05
5.84576e-05
4.95558e-05
3.83921e-05
2.45882e-05
7.81254e-06
-1.21465e-05
-3.52828e-05
-6.12544e-05
-8.92655e-05
-0.000117983
-0.000145539
-0.000169678
-0.000188077
-0.000198814
-0.00020086
-0.000194413
-0.000180873
-0.000162456
-0.000141586
-0.00012036
-0.000100265
-8.2164e-05
-6.64398e-05
-5.31544e-05
-4.21772e-05
-3.32703e-05
-2.61461e-05
-2.05091e-05
-1.60839e-05
-1.26319e-05
-9.95526e-06
-7.89258e-06
-6.31084e-06
-5.09925e-06
-4.16721e-06
-3.44492e-06
-2.88282e-06
-2.44786e-06
-2.11722e-06
-1.87193e-06
-1.6931e-06
-1.56134e-06
-1.45866e-06
-1.37089e-06
-1.28904e-06
-1.20908e-06
-1.13038e-06
-1.05372e-06
-9.79719e-07
-9.08039e-07
-8.37527e-07
-7.66804e-07
-6.94958e-07
-6.22021e-07
-5.48979e-07
-4.7751e-07
-4.09399e-07
-3.46089e-07
-2.88244e-07
-2.35666e-07
-1.8729e-07
-1.41419e-07
-9.57148e-08
-5.17639e-08
8.81431e-05
8.80971e-05
8.79796e-05
8.77859e-05
8.7506e-05
8.71192e-05
8.65964e-05
8.59e-05
8.49809e-05
8.37754e-05
8.22011e-05
8.01521e-05
7.74945e-05
7.40605e-05
6.96436e-05
6.39947e-05
5.68214e-05
4.77938e-05
3.65587e-05
2.27684e-05
6.12738e-06
-1.3538e-05
-3.61874e-05
-6.14586e-05
-8.85616e-05
-0.000116209
-0.000142629
-0.000165709
-0.000183295
-0.000193619
-0.000195746
-0.000189855
-0.00017723
-0.0001599
-0.000140107
-0.000119818
-0.000100456
-8.288e-05
-6.74948e-05
-5.4397e-05
-4.34916e-05
-3.4573e-05
-2.7382e-05
-2.16454e-05
-1.7105e-05
-1.35333e-05
-1.07393e-05
-8.56588e-06
-6.8827e-06
-5.58082e-06
-4.57055e-06
-3.7818e-06
-3.16363e-06
-2.68105e-06
-2.30938e-06
-2.02841e-06
-1.8187e-06
-1.66079e-06
-1.53663e-06
-1.4317e-06
-1.33636e-06
-1.24568e-06
-1.15817e-06
-1.07394e-06
-9.93259e-07
-9.15747e-07
-8.40359e-07
-7.65872e-07
-6.91455e-07
-6.1709e-07
-5.43578e-07
-4.72324e-07
-4.04813e-07
-3.4222e-07
-2.85008e-07
-2.32867e-07
-1.84696e-07
-1.38827e-07
-9.3046e-08
-4.91471e-08
8.795e-05
8.7897e-05
8.77616e-05
8.75395e-05
8.72206e-05
8.67832e-05
8.61968e-05
8.54223e-05
8.44093e-05
8.30927e-05
8.13891e-05
7.91926e-05
7.63703e-05
7.27573e-05
6.81529e-05
6.23174e-05
5.4973e-05
4.58101e-05
3.45029e-05
2.07375e-05
4.25816e-06
-1.50678e-05
-3.71643e-05
-6.16495e-05
-8.77433e-05
-0.000114212
-0.00013939
-0.000161318
-0.000178025
-0.000187905
-0.000190117
-0.000184824
-0.000173182
-0.000157028
-0.00013841
-0.000119153
-0.00010061
-8.3627e-05
-6.86317e-05
-5.57555e-05
-4.49413e-05
-3.60191e-05
-2.87607e-05
-2.29184e-05
-1.82527e-05
-1.45492e-05
-1.16252e-05
-9.32856e-06
-7.5322e-06
-6.12923e-06
-5.03104e-06
-4.16736e-06
-3.48591e-06
-2.94965e-06
-2.53192e-06
-2.21112e-06
-1.96711e-06
-1.78019e-06
-1.63216e-06
-1.50814e-06
-1.39774e-06
-1.2951e-06
-1.1978e-06
-1.10525e-06
-1.01733e-06
-9.33553e-07
-8.52971e-07
-7.74494e-07
-6.97345e-07
-6.21427e-07
-5.47329e-07
-4.76151e-07
-4.09053e-07
-3.46921e-07
-2.90015e-07
-2.3791e-07
-1.89476e-07
-1.43071e-07
-9.64727e-08
-5.1345e-08
8.7735e-05
8.76742e-05
8.75192e-05
8.72658e-05
8.6904e-05
8.6411e-05
8.57549e-05
8.48948e-05
8.3779e-05
8.2341e-05
8.04966e-05
7.81398e-05
7.51392e-05
7.13333e-05
6.65281e-05
6.04945e-05
5.29706e-05
4.36693e-05
3.22941e-05
1.85677e-05
2.27541e-06
-1.6673e-05
-3.81661e-05
-6.18043e-05
-8.68221e-05
-0.000112045
-0.00013592
-0.000156651
-0.000172447
-0.000181871
-0.000184169
-0.000179489
-0.000168861
-0.000153927
-0.000136538
-0.000118372
-0.000100706
-8.4368e-05
-6.98036e-05
-5.71787e-05
-4.6475e-05
-3.75596e-05
-3.02371e-05
-2.42869e-05
-1.94901e-05
-1.56469e-05
-1.2584e-05
-1.0155e-05
-8.23638e-06
-6.72376e-06
-5.5297e-06
-4.5839e-06
-3.83281e-06
-3.23745e-06
-2.76912e-06
-2.40468e-06
-2.12315e-06
-1.90448e-06
-1.73023e-06
-1.58507e-06
-1.45788e-06
-1.34187e-06
-1.23368e-06
-1.13199e-06
-1.03626e-06
-9.45852e-07
-8.59864e-07
-7.77292e-07
-6.97377e-07
-6.19914e-07
-5.45255e-07
-4.7418e-07
-4.07518e-07
-3.45863e-07
-2.89273e-07
-2.37218e-07
-1.88556e-07
-1.41704e-07
-9.45883e-08
-4.91028e-08
8.75037e-05
8.74346e-05
8.72587e-05
8.69721e-05
8.65647e-05
8.60125e-05
8.52822e-05
8.43314e-05
8.31067e-05
8.15405e-05
7.95477e-05
7.70225e-05
7.38352e-05
6.98286e-05
6.48156e-05
5.85789e-05
5.08738e-05
4.14367e-05
3.00019e-05
1.63293e-05
2.46469e-07
-1.82954e-05
-3.91512e-05
-6.1907e-05
-8.58157e-05
-0.000109767
-0.000132324
-0.000151849
-0.000166737
-0.000175704
-0.000178087
-0.000174016
-0.000164397
-0.000150686
-0.00013454
-0.00011749
-0.000100733
-8.50728e-05
-7.09691e-05
-5.862e-05
-4.8045e-05
-3.91485e-05
-3.17688e-05
-2.57131e-05
-2.07847e-05
-1.6799e-05
-1.35931e-05
-1.1027e-05
-8.98139e-06
-7.35435e-06
-6.05987e-06
-5.02772e-06
-4.20329e-06
-3.54571e-06
-3.02427e-06
-2.61424e-06
-2.29364e-06
-2.04192e-06
-1.84031e-06
-1.67301e-06
-1.5282e-06
-1.39818e-06
-1.27866e-06
-1.16761e-06
-1.06399e-06
-9.6699e-07
-8.7568e-07