/*--------------------------------*- C++ -*----------------------------------*\
| =========                 |                                                 |
| \\      /  F ield         | OpenFOAM: The Open Source CFD Toolbox           |
|  \\    /   O peration     | Version:  2512                                  |
|   \\  /    A nd           | Website:  www.openfoam.com                      |
|    \\/     M anipulation  |                                                 |
\*---------------------------------------------------------------------------*/
FoamFile
{
    version     2.0;
    format      ascii;
    arch        "LSB;label=32;scalar=64";
    class       volScalarField;
    location    "156";
    object      omega;
}
// * * * * * * * * * * * * * * * * * * * * * * * * * * * * * * * * * * * * * //

dimensions      [0 0 -1 0 0 0 0];

internalField   nonuniform List<scalar> 
240106
(
8.07067
6.69608
5.69885
4.94658
4.36122
3.89414
3.51361
3.19816
2.93275
2.7066
2.51176
2.34227
2.19358
2.06213
1.94515
1.84041
1.7461
1.66078
1.58322
1.51244
1.44759
1.38796
1.33296
1.28208
1.23487
1.19095
1.15
1.11173
1.07589
1.04224
1.01061
0.980816
0.952702
0.926133
0.900985
0.877149
0.854525
0.833025
0.812566
0.793076
0.774488
0.756741
0.73978
0.723554
0.708017
0.693125
0.678841
0.665128
0.651952
0.639283
0.627092
0.615352
0.604041
0.593133
0.582609
0.572449
0.562634
0.553146
0.543971
0.535093
0.526497
0.518171
0.510102
0.502279
0.49469
0.487325
0.480174
0.473229
0.466481
0.45992
0.453541
0.447335
0.441295
0.435415
0.429688
0.424109
0.418672
0.413372
0.408205
0.403239
8.07067
6.69608
5.69885
4.94658
4.36122
3.89414
3.51361
3.19816
2.93275
2.7066
2.51176
2.34227
2.19358
2.06213
1.94515
1.84041
1.7461
1.66078
1.58322
1.51244
1.44759
1.38796
1.33296
1.28208
1.23487
1.19095
1.15
1.11173
1.07589
1.04225
1.01061
0.980817
0.952703
0.926134
0.900986
0.87715
0.854527
0.833026
0.812567
0.793077
0.774489
0.756742
0.739781
0.723555
0.708018
0.693127
0.678842
0.665129
0.651953
0.639284
0.627093
0.615353
0.604041
0.593134
0.58261
0.57245
0.562634
0.553147
0.543972
0.535093
0.526498
0.518172
0.510103
0.502279
0.49469
0.487325
0.480175
0.47323
0.466481
0.459921
0.453541
0.447335
0.441295
0.435415
0.429689
0.42411
0.418673
0.413373
0.408205
0.403239
8.07067
6.69608
5.69885
4.94658
4.36122
3.89414
3.51361
3.19816
2.93275
2.7066
2.51176
2.34227
2.19358
2.06213
1.94515
1.84041
1.7461
1.66078
1.58322
1.51244
1.44759
1.38796
1.33296
1.28208
1.23487
1.19095
1.15
1.11173
1.07589
1.04225
1.01061
0.980819
0.952705
0.926136
0.900988
0.877152
0.854528
0.833028
0.812569
0.793079
0.774491
0.756744
0.739783
0.723557
0.708019
0.693128
0.678844
0.66513
0.651954
0.639285
0.627094
0.615355
0.604043
0.593135
0.582611
0.572451
0.562635
0.553148
0.543973
0.535094
0.526499
0.518173
0.510104
0.50228
0.494691
0.487326
0.480176
0.473231
0.466482
0.459922
0.453542
0.447336
0.441296
0.435416
0.429689
0.42411
0.418673
0.413373
0.408206
0.40324
8.07067
6.69608
5.69885
4.94658
4.36122
3.89414
3.51361
3.19816
2.93275
2.7066
2.51176
2.34227
2.19358
2.06213
1.94515
1.84041
1.7461
1.66078
1.58322
1.51244
1.44759
1.38796
1.33296
1.28208
1.23487
1.19095
1.15001
1.11173
1.07589
1.04225
1.01062
0.98082
0.952707
0.926137
0.90099
0.877154
0.85453
0.83303
0.812571
0.793081
0.774493
0.756746
0.739785
0.723559
0.708021
0.69313
0.678846
0.665132
0.651956
0.639287
0.627096
0.615356
0.604044
0.593137
0.582613
0.572452
0.562637
0.553149
0.543974
0.535096
0.5265
0.518174
0.510105
0.502281
0.494692
0.487327
0.480177
0.473232
0.466483
0.459923
0.453543
0.447337
0.441297
0.435417
0.42969
0.424111
0.418674
0.413374
0.408207
0.40324
8.07067
6.69608
5.69885
4.94658
4.36122
3.89414
3.51361
3.19816
2.93275
2.7066
2.51176
2.34227
2.19358
2.06213
1.94515
1.84041
1.7461
1.66078
1.58322
1.51244
1.44759
1.38796
1.33296
1.28208
1.23487
1.19096
1.15001
1.11174
1.07589
1.04225
1.01062
0.980822
0.952709
0.926139
0.900992
0.877156
0.854533
0.833032
0.812573
0.793083
0.774495
0.756748
0.739787
0.723561
0.708023
0.693132
0.678848
0.665134
0.651958
0.639289
0.627097
0.615358
0.604046
0.593138
0.582614
0.572454
0.562638
0.553151
0.543976
0.535097
0.526501
0.518175
0.510106
0.502282
0.494693
0.487328
0.480178
0.473233
0.466484
0.459924
0.453544
0.447338
0.441298
0.435418
0.429691
0.424112
0.418675
0.413375
0.408208
0.403241
8.07067
6.69608
5.69885
4.94658
4.36122
3.89414
3.51361
3.19816
2.93275
2.7066
2.51176
2.34227
2.19358
2.06213
1.94515
1.84041
1.7461
1.66078
1.58322
1.51244
1.44759
1.38796
1.33296
1.28208
1.23487
1.19096
1.15001
1.11174
1.07589
1.04225
1.01062
0.980824
0.952711
0.926142
0.900995
0.877159
0.854535
0.833035
0.812576
0.793086
0.774497
0.75675
0.739789
0.723563
0.708026
0.693134
0.67885
0.665136
0.65196
0.639291
0.627099
0.61536
0.604048
0.59314
0.582616
0.572455
0.56264
0.553153
0.543977
0.535099
0.526503
0.518177
0.510107
0.502284
0.494695
0.48733
0.480179
0.473234
0.466485
0.459925
0.453545
0.447339
0.441299
0.435419
0.429692
0.424113
0.418676
0.413376
0.408209
0.403242
8.07067
6.69608
5.69885
4.94658
4.36122
3.89414
3.51361
3.19816
2.93275
2.7066
2.51176
2.34227
2.19358
2.06213
1.94515
1.8404
1.7461
1.66078
1.58322
1.51244
1.44759
1.38796
1.33296
1.28208
1.23487
1.19096
1.15001
1.11174
1.07589
1.04225
1.01062
0.980826
0.952713
0.926144
0.900997
0.877161
0.854538
0.833037
0.812579
0.793088
0.7745
0.756753
0.739792
0.723566
0.708028
0.693137
0.678852
0.665138
0.651962
0.639293
0.627101
0.615362
0.60405
0.593142
0.582618
0.572457
0.562642
0.553154
0.543979
0.5351
0.526504
0.518178
0.510109
0.502285
0.494696
0.487331
0.480181
0.473235
0.466487
0.459926
0.453546
0.44734
0.4413
0.43542
0.429693
0.424114
0.418677
0.413377
0.40821
0.403243
8.07067
6.69608
5.69885
4.94658
4.36122
3.89414
3.51361
3.19816
2.93275
2.7066
2.51176
2.34227
2.19358
2.06213
1.94515
1.8404
1.7461
1.66078
1.58322
1.51244
1.44759
1.38796
1.33296
1.28208
1.23487
1.19096
1.15001
1.11174
1.07589
1.04225
1.01062
0.980829
0.952716
0.926147
0.901
0.877164
0.854541
0.83304
0.812581
0.793091
0.774503
0.756756
0.739794
0.723568
0.708031
0.693139
0.678855
0.665141
0.651965
0.639295
0.627104
0.615364
0.604052
0.593144
0.58262
0.572459
0.562644
0.553156
0.543981
0.535102
0.526506
0.51818
0.510111
0.502287
0.494698
0.487333
0.480182
0.473237
0.466488
0.459927
0.453548
0.447341
0.441301
0.435421
0.429694
0.424115
0.418678
0.413378
0.408211
0.403244
8.07067
6.69608
5.69885
4.94658
4.36122
3.89414
3.51361
3.19816
2.93275
2.7066
2.51176
2.34227
2.19358
2.06213
1.94515
1.8404
1.7461
1.66077
1.58322
1.51244
1.44759
1.38796
1.33296
1.28208
1.23487
1.19096
1.15001
1.11174
1.0759
1.04226
1.01063
0.980831
0.952718
0.92615
0.901003
0.877167
0.854544
0.833043
0.812585
0.793094
0.774506
0.756759
0.739797
0.723571
0.708033
0.693142
0.678857
0.665143
0.651967
0.639297
0.627106
0.615366
0.604054
0.593146
0.582622
0.572461
0.562646
0.553158
0.543982
0.535104
0.526508
0.518181
0.510112
0.502288
0.494699
0.487334
0.480184
0.473238
0.466489
0.459929
0.453549
0.447343
0.441303
0.435422
0.429696
0.424117
0.41868
0.413379
0.408212
0.403245
8.07067
6.69608
5.69885
4.94658
4.36122
3.89414
3.51361
3.19816
2.93275
2.7066
2.51176
2.34227
2.19357
2.06213
1.94515
1.8404
1.7461
1.66077
1.58322
1.51244
1.44758
1.38796
1.33296
1.28208
1.23487
1.19096
1.15001
1.11174
1.0759
1.04226
1.01063
0.980834
0.952721
0.926153
0.901006
0.87717
0.854547
0.833047
0.812588
0.793098
0.774509
0.756762
0.7398
0.723574
0.708036
0.693145
0.67886
0.665146
0.65197
0.6393
0.627108
0.615369
0.604056
0.593148
0.582624
0.572463
0.562648
0.55316
0.543984
0.535106
0.52651
0.518183
0.510114
0.50229
0.494701
0.487336
0.480185
0.47324
0.466491
0.45993
0.453551
0.447344
0.441304
0.435424
0.429697
0.424118
0.418681
0.413381
0.408213
0.403247
8.07067
6.69608
5.69885
4.94658
4.36122
3.89414
3.51361
3.19816
2.93275
2.7066
2.51176
2.34227
2.19357
2.06213
1.94515
1.8404
1.7461
1.66077
1.58322
1.51243
1.44758
1.38796
1.33296
1.28208
1.23487
1.19096
1.15001
1.11174
1.0759
1.04226
1.01063
0.980836
0.952724
0.926156
0.901009
0.877174
0.854551
0.83305
0.812591
0.793101
0.774512
0.756765
0.739803
0.723577
0.708039
0.693147
0.678863
0.665149
0.651972
0.639302
0.627111
0.615371
0.604058
0.593151
0.582626
0.572465
0.56265
0.553162
0.543986
0.535107
0.526511
0.518185
0.510116
0.502292
0.494703
0.487337
0.480187
0.473241
0.466492
0.459932
0.453552
0.447345
0.441305
0.435425
0.429698
0.424119
0.418682
0.413382
0.408214
0.403248
8.07067
6.69608
5.69885
4.94658
4.36122
3.89414
3.51361
3.19816
2.93275
2.7066
2.51176
2.34227
2.19357
2.06213
1.94515
1.8404
1.7461
1.66077
1.58322
1.51243
1.44758
1.38796
1.33296
1.28208
1.23487
1.19096
1.15001
1.11174
1.0759
1.04226
1.01063
0.980839
0.952727
0.926159
0.901012
0.877177
0.854554
0.833053
0.812595
0.793104
0.774516
0.756768
0.739807
0.72358
0.708042
0.69315
0.678865
0.665151
0.651975
0.639305
0.627113
0.615373
0.604061
0.593153
0.582628
0.572467
0.562652
0.553164
0.543988
0.535109
0.526513
0.518187
0.510117
0.502294
0.494704
0.487339
0.480188
0.473243
0.466494
0.459933
0.453553
0.447347
0.441307
0.435426
0.4297
0.42412
0.418683
0.413383
0.408216
0.403249
8.07067
6.69608
5.69885
4.94658
4.36122
3.89414
3.51361
3.19816
2.93275
2.7066
2.51176
2.34227
2.19357
2.06213
1.94514
1.8404
1.7461
1.66077
1.58322
1.51243
1.44758
1.38796
1.33296
1.28208
1.23487
1.19096
1.15001
1.11174
1.0759
1.04226
1.01063
0.980842
0.95273
0.926162
0.901016
0.87718
0.854557
0.833057
0.812598
0.793107
0.774519
0.756771
0.73981
0.723583
0.708045
0.693153
0.678868
0.665154
0.651977
0.639307
0.627116
0.615376
0.604063
0.593155
0.58263
0.572469
0.562654
0.553166
0.54399
0.535111
0.526515
0.518189
0.510119
0.502295
0.494706
0.487341
0.48019
0.473244
0.466495
0.459935
0.453555
0.447348
0.441308
0.435428
0.429701
0.424122
0.418685
0.413384
0.408217
0.40325
8.07067
6.69608
5.69885
4.94658
4.36122
3.89414
3.51361
3.19816
2.93275
2.7066
2.51176
2.34227
2.19357
2.06213
1.94514
1.8404
1.7461
1.66077
1.58322
1.51243
1.44758
1.38796
1.33296
1.28208
1.23487
1.19096
1.15001
1.11174
1.0759
1.04227
1.01064
0.980844
0.952732
0.926165
0.901019
0.877184
0.85456
0.83306
0.812601
0.793111
0.774522
0.756774
0.739813
0.723586
0.708048
0.693156
0.678871
0.665157
0.65198
0.63931
0.627118
0.615378
0.604065
0.593157
0.582633
0.572471
0.562656
0.553168
0.543992
0.535113
0.526517
0.51819
0.510121
0.502297
0.494707
0.487342
0.480191
0.473246
0.466497
0.459936
0.453556
0.44735
0.441309
0.435429
0.429702
0.424123
0.418686
0.413386
0.408218
0.403251
8.07067
6.69608
5.69885
4.94658
4.36122
3.89414
3.51361
3.19816
2.93275
2.7066
2.51176
2.34227
2.19357
2.06213
1.94514
1.8404
1.7461
1.66077
1.58321
1.51243
1.44758
1.38796
1.33296
1.28208
1.23487
1.19096
1.15001
1.11175
1.0759
1.04227
1.01064
0.980846
0.952735
0.926168
0.901022
0.877187
0.854563
0.833063
0.812604
0.793114
0.774525
0.756777
0.739815
0.723589
0.70805
0.693158
0.678873
0.665159
0.651982
0.639312
0.62712
0.61538
0.604067
0.593159
0.582634
0.572473
0.562657
0.55317
0.543994
0.535115
0.526519
0.518192
0.510122
0.502298
0.494709
0.487344
0.480193
0.473247
0.466498
0.459938
0.453558
0.447351
0.441311
0.43543
0.429703
0.424124
0.418687
0.413387
0.408219
0.403252
8.07067
6.69608
5.69885
4.94658
4.36122
3.89414
3.51361
3.19816
2.93275
2.7066
2.51176
2.34227
2.19357
2.06213
1.94514
1.8404
1.74609
1.66077
1.58321
1.51243
1.44758
1.38796
1.33296
1.28208
1.23487
1.19096
1.15001
1.11175
1.07591
1.04227
1.01064
0.980849
0.952737
0.92617
0.901024
0.877189
0.854566
0.833066
0.812607
0.793116
0.774527
0.75678
0.739818
0.723591
0.708053
0.693161
0.678875
0.665161
0.651984
0.639314
0.627122
0.615382
0.604069
0.593161
0.582636
0.572475
0.562659
0.553171
0.543995
0.535116
0.52652
0.518193
0.510124
0.5023
0.49471
0.487345
0.480194
0.473248
0.466499
0.459939
0.453559
0.447352
0.441312
0.435431
0.429704
0.424125
0.418688
0.413388
0.40822
0.403253
8.07067
6.69608
5.69885
4.94658
4.36122
3.89414
3.51361
3.19816
2.93275
2.7066
2.51176
2.34227
2.19357
2.06212
1.94514
1.8404
1.74609
1.66077
1.58321
1.51243
1.44758
1.38796
1.33296
1.28208
1.23487
1.19096
1.15001
1.11175
1.07591
1.04227
1.01064
0.98085
0.952739
0.926172
0.901026
0.877191
0.854568
0.833068
0.812609
0.793118
0.77453
0.756782
0.73982
0.723593
0.708055
0.693163
0.678877
0.665163
0.651986
0.639316
0.627124
0.615383
0.604071
0.593162
0.582638
0.572476
0.56266
0.553173
0.543997
0.535117
0.526521
0.518195
0.510125
0.502301
0.494711
0.487346
0.480195
0.473249
0.4665
0.45994
0.45356
0.447353
0.441313
0.435432
0.429705
0.424126
0.418689
0.413388
0.408221
0.403254
8.07067
6.69608
5.69885
4.94658
4.36122
3.89414
3.51361
3.19816
2.93275
2.7066
2.51176
2.34227
2.19357
2.06212
1.94514
1.8404
1.74609
1.66077
1.58321
1.51243
1.44758
1.38795
1.33296
1.28208
1.23487
1.19096
1.15001
1.11175
1.07591
1.04227
1.01064
0.980852
0.952741
0.926174
0.901028
0.877193
0.85457
0.83307
0.812611
0.79312
0.774531
0.756784
0.739822
0.723595
0.708056
0.693164
0.678879
0.665164
0.651987
0.639317
0.627125
0.615385
0.604072
0.593164
0.582639
0.572478
0.562662
0.553174
0.543998
0.535118
0.526522
0.518195
0.510126
0.502302
0.494712
0.487347
0.480196
0.47325
0.466501
0.45994
0.45356
0.447354
0.441313
0.435433
0.429706
0.424127
0.41869
0.413389
0.408221
0.403255
8.07067
6.69608
5.69885
4.94658
4.36122
3.89414
3.51361
3.19816
2.93275
2.7066
2.51176
2.34227
2.19357
2.06212
1.94514
1.8404
1.74609
1.66077
1.58321
1.51243
1.44758
1.38795
1.33296
1.28208
1.23487
1.19096
1.15002
1.11175
1.07591
1.04227
1.01064
0.980853
0.952742
0.926175
0.901029
0.877195
0.854572
0.833071
0.812612
0.793121
0.774533
0.756785
0.739823
0.723596
0.708057
0.693165
0.67888
0.665165
0.651988
0.639318
0.627126
0.615386
0.604073
0.593164
0.58264
0.572478
0.562662
0.553174
0.543998
0.535119
0.526523
0.518196
0.510127
0.502302
0.494713
0.487347
0.480197
0.473251
0.466502
0.459941
0.453561
0.447354
0.441314
0.435433
0.429706
0.424127
0.41869
0.41339
0.408222
0.403255
8.07067
6.69608
5.69885
4.94658
4.36122
3.89414
3.51361
3.19816
2.93275
2.7066
2.51176
2.34227
2.19357
2.06212
1.94514
1.8404
1.74609
1.66077
1.58321
1.51243
1.44758
1.38795
1.33296
1.28208
1.23487
1.19096
1.15002
1.11175
1.07591
1.04227
1.01065
0.980853
0.952743
0.926176
0.90103
0.877195
0.854572
0.833072
0.812613
0.793122
0.774533
0.756785
0.739823
0.723596
0.708058
0.693166
0.67888
0.665166
0.651989
0.639318
0.627126
0.615386
0.604073
0.593165
0.58264
0.572479
0.562663
0.553175
0.543999
0.53512
0.526523
0.518196
0.510127
0.502303
0.494713
0.487348
0.480197
0.473251
0.466502
0.459941
0.453561
0.447354
0.441314
0.435434
0.429707
0.424127
0.41869
0.41339
0.408222
0.403255
8.07067
6.69608
5.69885
4.94658
4.36122
3.89414
3.51361
3.19816
2.93275
2.7066
2.51176
2.34227
2.19357
2.06212
1.94514
1.8404
1.74609
1.66077
1.58321
1.51243
1.44758
1.38795
1.33296
1.28208
1.23487
1.19096
1.15002
1.11175
1.07591
1.04227
1.01065
0.980853
0.952743
0.926176
0.90103
0.877195
0.854572
0.833072
0.812613
0.793122
0.774533
0.756785
0.739823
0.723596
0.708058
0.693166
0.67888
0.665166
0.651989
0.639318
0.627126
0.615386
0.604073
0.593165
0.58264
0.572479
0.562663
0.553175
0.543999
0.53512
0.526523
0.518196
0.510127
0.502303
0.494713
0.487348
0.480197
0.473251
0.466502
0.459941
0.453561
0.447354
0.441314
0.435434
0.429707
0.424127
0.41869
0.41339
0.408222
0.403255
8.07067
6.69608
5.69885
4.94658
4.36122
3.89414
3.51361
3.19816
2.93275
2.7066
2.51176
2.34227
2.19357
2.06212
1.94514
1.8404
1.74609
1.66077
1.58321
1.51243
1.44758
1.38795
1.33296
1.28208
1.23487
1.19096
1.15002
1.11175
1.07591
1.04227
1.01065
0.980853
0.952742
0.926175
0.90103
0.877195
0.854572
0.833071
0.812612
0.793122
0.774533
0.756785
0.739823
0.723596
0.708057
0.693165
0.67888
0.665165
0.651988
0.639318
0.627126
0.615386
0.604073
0.593165
0.58264
0.572478
0.562662
0.553174
0.543998
0.535119
0.526523
0.518196
0.510127
0.502302
0.494713
0.487348
0.480197
0.473251
0.466502
0.459941
0.453561
0.447354
0.441314
0.435433
0.429706
0.424127
0.41869
0.41339
0.408222
0.403255
8.07067
6.69608
5.69885
4.94658
4.36122
3.89414
3.51361
3.19816
2.93275
2.7066
2.51176
2.34227
2.19357
2.06212
1.94514
1.8404
1.74609
1.66077
1.58321
1.51243
1.44758
1.38795
1.33296
1.28208
1.23487
1.19096
1.15002
1.11175
1.07591
1.04227
1.01064
0.980852
0.952741
0.926174
0.901028
0.877194
0.854571
0.83307
0.812611
0.79312
0.774532
0.756784
0.739822
0.723595
0.708056
0.693164
0.678879
0.665164
0.651987
0.639317
0.627125
0.615385
0.604072
0.593164
0.582639
0.572478
0.562662
0.553174
0.543998
0.535119
0.526522
0.518196
0.510126
0.502302
0.494712
0.487347
0.480196
0.47325
0.466501
0.45994
0.45356
0.447354
0.441313
0.435433
0.429706
0.424127
0.41869
0.413389
0.408221
0.403255
8.07067
6.69608
5.69885
4.94658
4.36122
3.89414
3.51361
3.19816
2.93275
2.7066
2.51176
2.34227
2.19357
2.06212
1.94514
1.8404
1.74609
1.66077
1.58321
1.51243
1.44758
1.38796
1.33296
1.28208
1.23487
1.19096
1.15001
1.11175
1.07591
1.04227
1.01064
0.980851
0.95274
0.926173
0.901027
0.877192
0.854569
0.833068
0.812609
0.793119
0.77453
0.756782
0.73982
0.723593
0.708055
0.693163
0.678877
0.665163
0.651986
0.639316
0.627124
0.615384
0.604071
0.593163
0.582638
0.572477
0.562661
0.553173
0.543997
0.535118
0.526521
0.518195
0.510125
0.502301
0.494711
0.487346
0.480195
0.473249
0.4665
0.45994
0.45356
0.447353
0.441313
0.435432
0.429705
0.424126
0.418689
0.413388
0.408221
0.403254
8.07067
6.69608
5.69885
4.94658
4.36122
3.89414
3.51361
3.19816
2.93275
2.7066
2.51176
2.34227
2.19357
2.06213
1.94514
1.8404
1.74609
1.66077
1.58321
1.51243
1.44758
1.38796
1.33296
1.28208
1.23487
1.19096
1.15001
1.11175
1.07591
1.04227
1.01064
0.980849
0.952738
0.926171
0.901025
0.87719
0.854567
0.833066
0.812607
0.793117
0.774528
0.75678
0.739818
0.723591
0.708053
0.693161
0.678876
0.665161
0.651984
0.639314
0.627122
0.615382
0.604069
0.593161
0.582636
0.572475
0.562659
0.553171
0.543995
0.535116
0.52652
0.518193
0.510124
0.5023
0.49471
0.487345
0.480194
0.473248
0.466499
0.459939
0.453559
0.447352
0.441312
0.435431
0.429704
0.424125
0.418688
0.413388
0.40822
0.403253
8.07067
6.69608
5.69885
4.94658
4.36122
3.89414
3.51361
3.19816
2.93275
2.7066
2.51176
2.34227
2.19357
2.06213
1.94514
1.8404
1.7461
1.66077
1.58322
1.51243
1.44758
1.38796
1.33296
1.28208
1.23487
1.19096
1.15001
1.11175
1.0759
1.04227
1.01064
0.980847
0.952736
0.926168
0.901022
0.877187
0.854564
0.833063
0.812604
0.793114
0.774525
0.756778
0.739816
0.723589
0.708051
0.693159
0.678874
0.665159
0.651982
0.639312
0.62712
0.61538
0.604068
0.593159
0.582635
0.572474
0.562658
0.55317
0.543994
0.535115
0.526519
0.518192
0.510123
0.502299
0.494709
0.487344
0.480193
0.473247
0.466498
0.459938
0.453558
0.447351
0.441311
0.43543
0.429703
0.424124
0.418687
0.413387
0.408219
0.403252
8.07067
6.69608
5.69885
4.94658
4.36122
3.89414
3.51361
3.19816
2.93275
2.7066
2.51176
2.34227
2.19357
2.06213
1.94514
1.8404
1.7461
1.66077
1.58322
1.51243
1.44758
1.38796
1.33296
1.28208
1.23487
1.19096
1.15001
1.11175
1.0759
1.04227
1.01064
0.980845
0.952733
0.926165
0.901019
0.877184
0.854561
0.83306
0.812602
0.793111
0.774522
0.756775
0.739813
0.723586
0.708048
0.693156
0.678871
0.665157
0.65198
0.63931
0.627118
0.615378
0.604066
0.593157
0.582633
0.572472
0.562656
0.553168
0.543992
0.535113
0.526517
0.51819
0.510121
0.502297
0.494708
0.487342
0.480192
0.473246
0.466497
0.459936
0.453556
0.44735
0.441309
0.435429
0.429702
0.424123
0.418686
0.413386
0.408218
0.403251
8.07067
6.69608
5.69885
4.94658
4.36122
3.89414
3.51361
3.19816
2.93275
2.7066
2.51176
2.34227
2.19357
2.06213
1.94515
1.8404
1.7461
1.66077
1.58322
1.51243
1.44758
1.38796
1.33296
1.28208
1.23487
1.19096
1.15001
1.11174
1.0759
1.04226
1.01064
0.980842
0.95273
0.926163
0.901016
0.877181
0.854558
0.833057
0.812598
0.793108
0.774519
0.756772
0.73981
0.723583
0.708045
0.693154
0.678869
0.665154
0.651978
0.639308
0.627116
0.615376
0.604063
0.593155
0.582631
0.57247
0.562654
0.553166
0.54399
0.535111
0.526515
0.518189
0.510119
0.502295
0.494706
0.487341
0.48019
0.473244
0.466496
0.459935
0.453555
0.447348
0.441308
0.435428
0.429701
0.424122
0.418685
0.413384
0.408217
0.40325
8.07067
6.69608
5.69885
4.94658
4.36122
3.89414
3.51361
3.19816
2.93275
2.7066
2.51176
2.34227
2.19357
2.06213
1.94515
1.8404
1.7461
1.66077
1.58322
1.51243
1.44758
1.38796
1.33296
1.28208
1.23487
1.19096
1.15001
1.11174
1.0759
1.04226
1.01063
0.98084
0.952728
0.92616
0.901013
0.877178
0.854555
0.833054
0.812595
0.793105
0.774516
0.756769
0.739807
0.723581
0.708043
0.693151
0.678866
0.665152
0.651975
0.639305
0.627114
0.615374
0.604061
0.593153
0.582629
0.572468
0.562652
0.553164
0.543989
0.53511
0.526514
0.518187
0.510118
0.502294
0.494704
0.487339
0.480188
0.473243
0.466494
0.459933
0.453554
0.447347
0.441307
0.435426
0.4297
0.424121
0.418684
0.413383
0.408216
0.403249
8.07067
6.69608
5.69885
4.94658
4.36122
3.89414
3.51361
3.19816
2.93275
2.7066
2.51176
2.34227
2.19357
2.06213
1.94515
1.8404
1.7461
1.66077
1.58322
1.51244
1.44758
1.38796
1.33296
1.28208
1.23487
1.19096
1.15001
1.11174
1.0759
1.04226
1.01063
0.980837
0.952725
0.926157
0.90101
0.877175
0.854551
0.833051
0.812592
0.793102
0.774513
0.756766
0.739804
0.723578
0.70804
0.693148
0.678863
0.665149
0.651973
0.639303
0.627111
0.615371
0.604059
0.593151
0.582626
0.572466
0.56265
0.553162
0.543987
0.535108
0.526512
0.518185
0.510116
0.502292
0.494703
0.487338
0.480187
0.473241
0.466493
0.459932
0.453552
0.447346
0.441305
0.435425
0.429698
0.424119
0.418682
0.413382
0.408214
0.403248
8.07067
6.69608
5.69885
4.94658
4.36122
3.89414
3.51361
3.19816
2.93275
2.7066
2.51176
2.34227
2.19357
2.06213
1.94515
1.8404
1.7461
1.66077
1.58322
1.51244
1.44759
1.38796
1.33296
1.28208
1.23487
1.19096
1.15001
1.11174
1.0759
1.04226
1.01063
0.980835
0.952722
0.926154
0.901007
0.877171
0.854548
0.833047
0.812589
0.793098
0.77451
0.756763
0.739801
0.723575
0.708037
0.693145
0.67886
0.665147
0.65197
0.6393
0.627109
0.615369
0.604057
0.593149
0.582624
0.572464
0.562648
0.55316
0.543985
0.535106
0.52651
0.518183
0.510114
0.50229
0.494701
0.487336
0.480185
0.47324
0.466491
0.459931
0.453551
0.447344
0.441304
0.435424
0.429697
0.424118
0.418681
0.413381
0.408213
0.403247
8.07067
6.69608
5.69885
4.94658
4.36122
3.89414
3.51361
3.19816
2.93275
2.7066
2.51176
2.34227
2.19358
2.06213
1.94515
1.8404
1.7461
1.66078
1.58322
1.51244
1.44759
1.38796
1.33296
1.28208
1.23487
1.19096
1.15001
1.11174
1.0759
1.04226
1.01063
0.980832
0.952719
0.926151
0.901004
0.877168
0.854545
0.833044
0.812585
0.793095
0.774507
0.75676
0.739798
0.723572
0.708034
0.693142
0.678858
0.665144
0.651968
0.639298
0.627106
0.615367
0.604054
0.593147
0.582622
0.572461
0.562646
0.553158
0.543983
0.535104
0.526508
0.518182
0.510112
0.502289
0.4947
0.487334
0.480184
0.473238
0.46649
0.459929
0.453549
0.447343
0.441303
0.435422
0.429696
0.424117
0.41868
0.41338
0.408212
0.403246
8.07067
6.69608
5.69885
4.94658
4.36122
3.89414
3.51361
3.19816
2.93275
2.7066
2.51176
2.34227
2.19358
2.06213
1.94515
1.8404
1.7461
1.66078
1.58322
1.51244
1.44759
1.38796
1.33296
1.28208
1.23487
1.19096
1.15001
1.11174
1.0759
1.04226
1.01062
0.98083
0.952717
0.926148
0.901001
0.877165
0.854542
0.833041
0.812582
0.793092
0.774504
0.756757
0.739795
0.723569
0.708031
0.69314
0.678855
0.665141
0.651965
0.639295
0.627104
0.615364
0.604052
0.593145
0.58262
0.572459
0.562644
0.553156
0.543981
0.535102
0.526506
0.51818
0.510111
0.502287
0.494698
0.487333
0.480182
0.473237
0.466488
0.459928
0.453548
0.447341
0.441301
0.435421
0.429695
0.424116
0.418679
0.413378
0.408211
0.403244
8.07067
6.69608
5.69885
4.94658
4.36122
3.89414
3.51361
3.19816
2.93275
2.7066
2.51176
2.34227
2.19358
2.06213
1.94515
1.84041
1.7461
1.66078
1.58322
1.51244
1.44759
1.38796
1.33296
1.28208
1.23487
1.19096
1.15001
1.11174
1.07589
1.04225
1.01062
0.980828
0.952714
0.926145
0.900998
0.877162
0.854539
0.833038
0.812579
0.793089
0.774501
0.756754
0.739792
0.723566
0.708029
0.693137
0.678853
0.665139
0.651963
0.639293
0.627102
0.615362
0.60405
0.593143
0.582618
0.572458
0.562642
0.553155
0.543979
0.535101
0.526505
0.518178
0.510109
0.502286
0.494696
0.487331
0.480181
0.473236
0.466487
0.459926
0.453547
0.44734
0.4413
0.43542
0.429693
0.424114
0.418677
0.413377
0.40821
0.403243
8.07067
6.69608
5.69885
4.94658
4.36122
3.89414
3.51361
3.19816
2.93275
2.7066
2.51176
2.34227
2.19358
2.06213
1.94515
1.84041
1.7461
1.66078
1.58322
1.51244
1.44759
1.38796
1.33296
1.28208
1.23487
1.19096
1.15001
1.11174
1.07589
1.04225
1.01062
0.980825
0.952712
0.926143
0.900996
0.87716
0.854536
0.833035
0.812577
0.793087
0.774498
0.756751
0.73979
0.723564
0.708026
0.693135
0.67885
0.665137
0.651961
0.639291
0.6271
0.61536
0.604048
0.593141
0.582616
0.572456
0.56264
0.553153
0.543978
0.535099
0.526503
0.518177
0.510108
0.502284
0.494695
0.48733
0.48018
0.473234
0.466485
0.459925
0.453545
0.447339
0.441299
0.435419
0.429692
0.424113
0.418676
0.413376
0.408209
0.403242
8.07067
6.69608
5.69885
4.94658
4.36122
3.89414
3.51361
3.19816
2.93275
2.7066
2.51176
2.34227
2.19358
2.06213
1.94515
1.84041
1.7461
1.66078
1.58322
1.51244
1.44759
1.38796
1.33296
1.28208
1.23487
1.19096
1.15001
1.11174
1.07589
1.04225
1.01062
0.980823
0.95271
0.926141
0.900993
0.877157
0.854534
0.833033
0.812574
0.793084
0.774496
0.756749
0.739788
0.723562
0.708024
0.693133
0.678848
0.665135
0.651959
0.639289
0.627098
0.615359
0.604046
0.593139
0.582615
0.572454
0.562639
0.553151
0.543976
0.535097
0.526502
0.518175
0.510106
0.502283
0.494694
0.487329
0.480178
0.473233
0.466484
0.459924
0.453544
0.447338
0.441298
0.435418
0.429691
0.424112
0.418675
0.413375
0.408208
0.403241
8.07067
6.69608
5.69885
4.94658
4.36122
3.89414
3.51361
3.19816
2.93275
2.7066
2.51176
2.34227
2.19358
2.06213
1.94515
1.84041
1.7461
1.66078
1.58322
1.51244
1.44759
1.38796
1.33296
1.28208
1.23487
1.19096
1.15001
1.11174
1.07589
1.04225
1.01062
0.980822
0.952708
0.926139
0.900991
0.877155
0.854532
0.833031
0.812572
0.793082
0.774494
0.756747
0.739785
0.723559
0.708022
0.693131
0.678846
0.665133
0.651957
0.639287
0.627096
0.615357
0.604045
0.593137
0.582613
0.572453
0.562637
0.55315
0.543975
0.535096
0.5265
0.518174
0.510105
0.502282
0.494693
0.487328
0.480177
0.473232
0.466483
0.459923
0.453543
0.447337
0.441297
0.435417
0.42969
0.424111
0.418674
0.413374
0.408207
0.403241
8.07067
6.69608
5.69885
4.94658
4.36122
3.89414
3.51361
3.19816
2.93275
2.7066
2.51176
2.34228
2.19358
2.06213
1.94515
1.84041
1.7461
1.66078
1.58322
1.51244
1.44759
1.38796
1.33296
1.28208
1.23487
1.19096
1.15001
1.11173
1.07589
1.04225
1.01062
0.98082
0.952706
0.926137
0.900989
0.877153
0.85453
0.833029
0.81257
0.79308
0.774492
0.756745
0.739784
0.723558
0.70802
0.693129
0.678845
0.665131
0.651955
0.639286
0.627095
0.615355
0.604043
0.593136
0.582612
0.572451
0.562636
0.553149
0.543973
0.535095
0.526499
0.518173
0.510104
0.502281
0.494691
0.487327
0.480176
0.473231
0.466482
0.459922
0.453542
0.447336
0.441296
0.435416
0.429689
0.424111
0.418674
0.413374
0.408206
0.40324
8.07067
6.69608
5.69885
4.94658
4.36122
3.89414
3.51361
3.19816
2.93275
2.7066
2.51176
2.34228
2.19358
2.06213
1.94515
1.84041
1.7461
1.66078
1.58322
1.51244
1.44759
1.38796
1.33296
1.28208
1.23487
1.19095
1.15001
1.11173
1.07589
1.04225
1.01061
0.980819
0.952705
0.926135
0.900988
0.877151
0.854528
0.833027
0.812568
0.793078
0.77449
0.756743
0.739782
0.723556
0.708019
0.693127
0.678843
0.66513
0.651954
0.639284
0.627093
0.615354
0.604042
0.593135
0.582611
0.57245
0.562635
0.553148
0.543972
0.535094
0.526498
0.518172
0.510103
0.50228
0.494691
0.487326
0.480175
0.47323
0.466481
0.459921
0.453542
0.447335
0.441295
0.435415
0.429689
0.42411
0.418673
0.413373
0.408206
0.403239
8.07067
6.69608
5.69885
4.94658
4.36122
3.89414
3.51361
3.19816
2.93275
2.7066
2.51176
2.34228
2.19358
2.06213
1.94515
1.84041
1.7461
1.66078
1.58322
1.51244
1.44759
1.38796
1.33296
1.28208
1.23487
1.19095
1.15
1.11173
1.07589
1.04225
1.01061
0.980818
0.952703
0.926134
0.900986
0.87715
0.854527
0.833026
0.812567
0.793077
0.774489
0.756742
0.739781
0.723555
0.708018
0.693126
0.678842
0.665129
0.651953
0.639283
0.627092
0.615353
0.604041
0.593134
0.58261
0.572449
0.562634
0.553147
0.543972
0.535093
0.526498
0.518172
0.510103
0.502279
0.49469
0.487325
0.480175
0.47323
0.466481
0.459921
0.453541
0.447335
0.441295
0.435415
0.429688
0.42411
0.418673
0.413373
0.408205
0.403239
8.07067
6.69608
5.69885
4.94658
4.36122
3.89414
3.51361
3.19816
2.93275
2.7066
2.51176
2.34227
2.19358
2.06213
1.94515
1.84041
1.7461
1.66078
1.58322
1.51244
1.44759
1.38796
1.33296
1.28208
1.23487
1.19095
1.15
1.11173
1.07589
1.04225
1.01061
0.980817
0.952703
0.926134
0.900986
0.87715
0.854527
0.833026
0.812567
0.793077
0.774489
0.756742
0.739781
0.723555
0.708018
0.693127
0.678842
0.665129
0.651953
0.639284
0.627093
0.615353
0.604041
0.593134
0.58261
0.57245
0.562634
0.553147
0.543972
0.535093
0.526498
0.518172
0.510103
0.502279
0.49469
0.487325
0.480175
0.47323
0.466481
0.459921
0.453541
0.447335
0.441295
0.435415
0.429689
0.42411
0.418673
0.413373
0.408205
0.403239
8.07067
6.69608
5.69885
4.94658
4.36122
3.89414
3.51361
3.19816
2.93275
2.7066
2.51176
2.34227
2.19358
2.06213
1.94515
1.84041
1.7461
1.66078
1.58322
1.51244
1.44759
1.38796
1.33296
1.28208
1.23487
1.19095
1.15
1.11173
1.07589
1.04225
1.01061
0.980819
0.952705
0.926135
0.900988
0.877152
0.854528
0.833027
0.812569
0.793079
0.77449
0.756743
0.739782
0.723556
0.708019
0.693128
0.678843
0.66513
0.651954
0.639285
0.627094
0.615354
0.604042
0.593135
0.582611
0.57245
0.562635
0.553148
0.543973
0.535094
0.526498
0.518172
0.510103
0.50228
0.494691
0.487326
0.480175
0.47323
0.466482
0.459921
0.453542
0.447335
0.441296
0.435415
0.429689
0.42411
0.418673
0.413373
0.408206
0.403239
8.07067
6.69608
5.69885
4.94658
4.36122
3.89414
3.51361
3.19816
2.93275
2.7066
2.51176
2.34227
2.19358
2.06213
1.94515
1.84041
1.7461
1.66078
1.58322
1.51244
1.44759
1.38796
1.33296
1.28208
1.23487
1.19096
1.15001
1.11173
1.07589
1.04225
1.01062
0.98082
0.952706
0.926137
0.90099
0.877154
0.85453
0.833029
0.812571
0.79308
0.774492
0.756745
0.739784
0.723558
0.708021
0.69313
0.678845
0.665132
0.651956
0.639286
0.627095
0.615356
0.604044
0.593136
0.582612
0.572452
0.562636
0.553149
0.543974
0.535095
0.526499
0.518173
0.510104