/*--------------------------------*- C++ -*----------------------------------*\
| =========                 |                                                 |
| \\      /  F ield         | OpenFOAM: The Open Source CFD Toolbox           |
|  \\    /   O peration     | Version:  2512                                  |
|   \\  /    A nd           | Website:  www.openfoam.com                      |
|    \\/     M anipulation  |                                                 |
\*---------------------------------------------------------------------------*/
FoamFile
{
    version     2.0;
    format      ascii;
    arch        "LSB;label=32;scalar=64";
    class       volScalarField;
    location    "156";
    object      p;
}
// * * * * * * * * * * * * * * * * * * * * * * * * * * * * * * * * * * * * * //

dimensions      [0 2 -2 0 0 0 0];

internalField   nonuniform List<scalar> 
240106
(
7.88782e-06
7.88132e-06
7.86425e-06
7.8368e-06
7.79849e-06
7.74771e-06
7.68225e-06
7.59949e-06
7.49628e-06
7.36884e-06
7.21277e-06
7.02306e-06
6.7941e-06
6.51984e-06
6.19391e-06
5.80993e-06
5.36194e-06
4.84495e-06
4.25568e-06
3.59341e-06
2.86092e-06
2.06545e-06
1.2195e-06
3.41271e-07
-5.45433e-07
-1.41209e-06
-2.22723e-06
-2.95906e-06
-3.5787e-06
-4.06349e-06
-4.3998e-06
-4.58465e-06
-4.62565e-06
-4.53945e-06
-4.34894e-06
-4.07994e-06
-3.75826e-06
-3.40732e-06
-3.04686e-06
-2.69233e-06
-2.35492e-06
-2.04206e-06
-1.75797e-06
-1.5044e-06
-1.28125e-06
-1.08717e-06
-9.20019e-07
-7.77218e-07
-6.56024e-07
-5.53718e-07
-4.67716e-07
-3.95647e-07
-3.35384e-07
-2.85057e-07
-2.43043e-07
-2.07953e-07
-1.78608e-07
-1.54014e-07
-1.33344e-07
-1.15908e-07
-1.01137e-07
-8.85605e-08
-7.77924e-08
-6.85156e-08
-6.04707e-08
-5.34456e-08
-4.72673e-08
-4.17938e-08
-3.69083e-08
-3.25136e-08
-2.85285e-08
-2.48846e-08
-2.15243e-08
-1.83984e-08
-1.54648e-08
-1.26867e-08
-1.00307e-08
-7.47252e-09
-4.93434e-09
-2.88888e-09
7.88978e-06
7.88332e-06
7.86642e-06
7.83924e-06
7.80129e-06
7.75096e-06
7.68609e-06
7.60404e-06
7.50166e-06
7.37519e-06
7.22023e-06
7.03175e-06
6.80414e-06
6.53127e-06
6.20671e-06
5.82401e-06
5.37706e-06
4.86072e-06
4.27152e-06
3.60852e-06
2.8743e-06
2.07595e-06
1.22587e-06
3.42315e-07
-5.50714e-07
-1.42429e-06
-2.24635e-06
-2.98442e-06
-3.60891e-06
-4.09657e-06
-4.43347e-06
-4.61662e-06
-4.65401e-06
-4.56286e-06
-4.36673e-06
-4.09212e-06
-3.76528e-06
-3.40998e-06
-3.04607e-06
-2.68899e-06
-2.34988e-06
-2.03602e-06
-1.75148e-06
-1.49787e-06
-1.27497e-06
-1.08133e-06
-9.14725e-07
-7.72508e-07
-6.51902e-07
-5.50155e-07
-4.6467e-07
-3.93066e-07
-3.33213e-07
-2.83241e-07
-2.41533e-07
-2.06702e-07
-1.77574e-07
-1.53163e-07
-1.32644e-07
-1.15333e-07
-1.00665e-07
-8.81733e-08
-7.74746e-08
-6.82545e-08
-6.02557e-08
-5.32682e-08
-4.71207e-08
-4.16726e-08
-3.6808e-08
-3.24307e-08
-2.84602e-08
-2.48287e-08
-2.14788e-08
-1.83619e-08
-1.54361e-08
-1.26649e-08
-1.00149e-08
-7.46055e-09
-4.93012e-09
-2.85619e-09
7.89358e-06
7.88724e-06
7.87068e-06
7.84402e-06
7.80677e-06
7.75736e-06
7.69363e-06
7.61297e-06
7.51224e-06
7.38769e-06
7.23492e-06
7.04887e-06
6.82389e-06
6.55376e-06
6.23195e-06
5.85178e-06
5.40692e-06
4.8919e-06
4.30287e-06
3.63848e-06
2.90092e-06
2.09692e-06
1.23871e-06
3.44616e-07
-5.60944e-07
-1.44825e-06
-2.28411e-06
-3.03463e-06
-3.6688e-06
-4.16223e-06
-4.50031e-06
-4.6801e-06
-4.71028e-06
-4.60926e-06
-4.40199e-06
-4.11621e-06
-3.77916e-06
-3.41521e-06
-3.04446e-06
-2.68237e-06
-2.33989e-06
-2.02404e-06
-1.73862e-06
-1.48495e-06
-1.26256e-06
-1.06979e-06
-9.04252e-07
-7.63194e-07
-6.43747e-07
-5.43108e-07
-4.58645e-07
-3.87959e-07
-3.28916e-07
-2.79648e-07
-2.38543e-07
-2.04224e-07
-1.75528e-07
-1.51477e-07
-1.31257e-07
-1.14194e-07
-9.973e-08
-8.74059e-08
-7.68444e-08
-6.77364e-08
-5.9829e-08
-5.29161e-08
-4.68294e-08
-4.14314e-08
-3.66083e-08
-3.22655e-08
-2.83239e-08
-2.47167e-08
-2.13876e-08
-1.82886e-08
-1.53783e-08
-1.26206e-08
-9.98202e-09
-7.43604e-09
-4.9117e-09
-2.82159e-09
7.89918e-06
7.89303e-06
7.87695e-06
7.85105e-06
7.81485e-06
7.76679e-06
7.70474e-06
7.62613e-06
7.52784e-06
7.40613e-06
7.25659e-06
7.07414e-06
6.85306e-06
6.58703e-06
6.26929e-06
5.89292e-06
5.45121e-06
4.93821e-06
4.34951e-06
3.68316e-06
2.9407e-06
2.12838e-06
1.25814e-06
3.48389e-07
-5.75858e-07
-1.48371e-06
-2.34023e-06
-3.10944e-06
-3.75816e-06
-4.26023e-06
-4.60005e-06
-4.77473e-06
-4.79402e-06
-4.67815e-06
-4.45414e-06
-4.15166e-06
-3.7994e-06
-3.4226e-06
-3.04174e-06
-2.67226e-06
-2.32485e-06
-2.00614e-06
-1.71947e-06
-1.46575e-06
-1.24414e-06
-1.05269e-06
-8.8876e-07
-7.4943e-07
-6.31709e-07
-5.32712e-07
-4.49761e-07
-3.80434e-07
-3.22588e-07
-2.74359e-07
-2.34144e-07
-2.0058e-07
-1.72519e-07
-1.48998e-07
-1.29219e-07
-1.1252e-07
-9.83556e-08
-8.62778e-08
-7.5918e-08
-6.69745e-08
-5.92013e-08
-5.23978e-08
-4.64008e-08
-4.10764e-08
-3.63142e-08
-3.20221e-08
-2.81229e-08
-2.45515e-08
-2.12529e-08
-1.81801e-08
-1.52927e-08
-1.2555e-08
-9.9334e-09
-7.40088e-09
-4.88676e-09
-2.79226e-09
7.90642e-06
7.90051e-06
7.88505e-06
7.86014e-06
7.8253e-06
7.779e-06
7.71914e-06
7.6432e-06
7.54807e-06
7.43005e-06
7.28473e-06
7.10699e-06
6.89102e-06
6.63036e-06
6.31799e-06
5.94665e-06
5.50914e-06
4.9989e-06
4.41078e-06
3.74199e-06
2.99329e-06
2.17019e-06
1.28425e-06
3.5395e-07
-5.9493e-07
-1.52996e-06
-2.41391e-06
-3.20798e-06
-3.87607e-06
-4.38962e-06
-4.73168e-06
-4.89944e-06
-4.90411e-06
-4.76839e-06
-4.52212e-06
-4.19754e-06
-3.82525e-06
-3.43162e-06
-3.0376e-06
-2.65856e-06
-2.30482e-06
-1.98246e-06
-1.69426e-06
-1.44057e-06
-1.22006e-06
-1.03036e-06
-8.68568e-07
-7.31512e-07
-6.16053e-07
-5.19205e-07
-4.38228e-07
-3.7067e-07
-3.14382e-07
-2.67502e-07
-2.28443e-07
-1.95859e-07
-1.68621e-07
-1.45788e-07
-1.2658e-07
-1.10352e-07
-9.65764e-08
-8.48174e-08
-7.47185e-08
-6.5988e-08
-5.83884e-08
-5.17265e-08
-4.58454e-08
-4.06164e-08
-3.59331e-08
-3.17066e-08
-2.78622e-08
-2.4337e-08
-2.10778e-08
-1.80391e-08
-1.51816e-08
-1.24698e-08
-9.8707e-09
-7.35664e-09
-4.85737e-09
-2.76807e-09
7.91513e-06
7.90951e-06
7.8948e-06
7.87109e-06
7.83789e-06
7.7937e-06
7.7365e-06
7.66377e-06
7.57249e-06
7.45894e-06
7.31874e-06
7.14673e-06
6.937e-06
6.6829e-06
6.37715e-06
6.01203e-06
5.57977e-06
5.07308e-06
4.48587e-06
3.81437e-06
3.05826e-06
2.2222e-06
1.31718e-06
3.61738e-07
-6.1746e-07
-1.58611e-06
-2.50412e-06
-3.32915e-06
-4.02141e-06
-4.54925e-06
-4.89401e-06
-5.05295e-06
-5.03922e-06
-4.87866e-06
-4.60469e-06
-4.25277e-06
-3.85585e-06
-3.44168e-06
-3.03169e-06
-2.64114e-06
-2.27985e-06
-1.95323e-06
-1.66332e-06
-1.40977e-06
-1.19068e-06
-1.00321e-06
-8.44049e-07
-7.09791e-07
-5.97099e-07
-5.0287e-07
-4.24293e-07
-3.58883e-07
-3.0448e-07
-2.59234e-07
-2.21572e-07
-1.90171e-07
-1.63927e-07
-1.41923e-07
-1.23402e-07
-1.07743e-07
-9.44349e-08
-8.30597e-08
-7.32747e-08
-6.48004e-08
-5.74096e-08
-5.09181e-08
-4.51764e-08
-4.00621e-08
-3.54736e-08
-3.13259e-08
-2.75474e-08
-2.40778e-08
-2.0866e-08
-1.78684e-08
-1.50469e-08
-1.23669e-08
-9.79517e-09
-7.30418e-09
-4.82411e-09
-2.74726e-09
7.92509e-06
7.9198e-06
7.90595e-06
7.88361e-06
7.85229e-06
7.81054e-06
7.75638e-06
7.68737e-06
7.6005e-06
7.49213e-06
7.35785e-06
7.19249e-06
6.99001e-06
6.74358e-06
6.44558e-06
6.08782e-06
5.66186e-06
5.15952e-06
4.57368e-06
3.89933e-06
3.13494e-06
2.28406e-06
1.35696e-06
3.72179e-07
-6.42648e-07
-1.65103e-06
-2.6095e-06
-3.47143e-06
-4.19256e-06
-4.73742e-06
-5.08525e-06
-5.23344e-06
-5.19749e-06
-5.00713e-06
-4.70017e-06
-4.31593e-06
-3.89013e-06
-3.45203e-06
-3.02361e-06
-2.61989e-06
-2.25008e-06
-1.91874e-06
-1.62705e-06
-1.37385e-06
-1.15654e-06
-9.7173e-07
-8.157e-07
-6.84723e-07
-5.75261e-07
-4.84074e-07
-4.08276e-07
-3.45347e-07
-2.9312e-07
-2.49754e-07
-2.13698e-07
-1.83656e-07
-1.58553e-07
-1.37499e-07
-1.19767e-07
-1.04758e-07
-9.19854e-08
-8.10494e-08
-7.16235e-08
-6.34421e-08
-5.62899e-08
-4.99931e-08
-4.44109e-08
-3.94278e-08
-3.49477e-08
-3.08901e-08
-2.71868e-08
-2.37807e-08
-2.06232e-08
-1.76728e-08
-1.48928e-08
-1.22494e-08
-9.70955e-09
-7.24568e-09
-4.78848e-09
-2.72889e-09
7.93604e-06
7.93112e-06
7.91823e-06
7.8974e-06
7.86816e-06
7.82911e-06
7.77832e-06
7.71342e-06
7.63147e-06
7.52885e-06
7.40118e-06
7.24323e-06
7.04889e-06
6.8111e-06
6.52189e-06
6.17254e-06
5.75386e-06
5.25672e-06
4.67279e-06
3.99567e-06
3.22241e-06
2.35522e-06
1.40351e-06
3.85698e-07
-6.6957e-07
-1.72336e-06
-2.72833e-06
-3.63285e-06
-4.38735e-06
-4.95185e-06
-5.30305e-06
-5.43851e-06
-5.37654e-06
-5.15158e-06
-4.80661e-06
-4.38543e-06
-3.92689e-06
-3.46194e-06
-3.01301e-06
-2.59481e-06
-2.21576e-06
-1.87944e-06
-1.58602e-06
-1.33342e-06
-1.11827e-06
-9.36563e-07
-7.84108e-07
-6.56847e-07
-5.51018e-07
-4.63239e-07
-3.90545e-07
-3.30378e-07
-2.80568e-07
-2.39287e-07
-2.0501e-07
-1.76472e-07
-1.52628e-07
-1.32624e-07
-1.15761e-07
-1.0147e-07
-8.92878e-08
-7.88355e-08
-6.9805e-08
-6.19459e-08
-5.50562e-08
-4.89737e-08
-4.35668e-08
-3.8728e-08
-3.43673e-08
-3.04087e-08
-2.67882e-08
-2.34518e-08
-2.03541e-08
-1.74559e-08
-1.47219e-08
-1.21191e-08
-9.61487e-09
-7.18145e-09
-4.75004e-09
-2.71099e-09
7.94772e-06
7.94318e-06
7.93131e-06
7.91211e-06
7.8851e-06
7.84894e-06
7.80178e-06
7.7413e-06
7.66464e-06
7.56823e-06
7.4477e-06
7.29781e-06
7.11233e-06
6.88398e-06
6.60444e-06
6.26442e-06
5.85395e-06
5.36284e-06
4.78143e-06
4.10181e-06
3.31939e-06
2.43486e-06
1.45655e-06
4.02622e-07
-6.97254e-07
-1.80152e-06
-2.85849e-06
-3.81088e-06
-4.60297e-06
-5.18957e-06
-5.54434e-06
-5.66507e-06
-5.57343e-06
-5.30931e-06
-4.92168e-06
-4.45945e-06
-3.96489e-06
-3.47067e-06
-2.99963e-06
-2.56602e-06
-2.1773e-06
-1.83593e-06
-1.54095e-06
-1.28926e-06
-1.07665e-06
-8.98442e-07
-7.49957e-07
-6.26784e-07
-5.24925e-07
-4.40851e-07
-3.71518e-07
-3.14335e-07
-2.67129e-07
-2.2809e-07
-1.95723e-07
-1.68796e-07
-1.46302e-07
-1.27421e-07
-1.11488e-07
-9.79637e-08
-8.64114e-08
-7.64755e-08
-6.78667e-08
-6.03512e-08
-5.37414e-08
-4.78871e-08
-4.26672e-08
-3.79823e-08
-3.37486e-08
-2.98956e-08
-2.63632e-08
-2.31012e-08
-2.00673e-08
-1.72248e-08
-1.45402e-08
-1.19813e-08
-9.51552e-09
-7.11506e-09
-4.71142e-09
-2.69454e-09
7.95981e-06
7.95568e-06
7.94488e-06
7.92737e-06
7.90269e-06
7.86955e-06
7.82617e-06
7.77033e-06
7.69921e-06
7.60932e-06
7.49631e-06
7.35493e-06
7.17884e-06
6.96056e-06
6.69138e-06
6.36146e-06
5.96e-06
5.47568e-06
4.89747e-06
4.21578e-06
3.42422e-06
2.52179e-06
1.51551e-06
4.2313e-07
-7.24713e-07
-1.8837e-06
-2.99745e-06
-4.00238e-06
-4.83588e-06
-5.44673e-06
-5.8052e-06
-5.90929e-06
-5.78456e-06
-5.47714e-06
-5.04281e-06
-4.53607e-06
-4.00286e-06
-3.47759e-06
-2.98336e-06
-2.5338e-06
-2.13528e-06
-1.78898e-06
-1.4927e-06
-1.24227e-06
-1.03256e-06
-8.58212e-07
-7.14025e-07
-5.95231e-07
-4.97594e-07
-4.17443e-07
-3.51652e-07
-2.97605e-07
-2.53128e-07
-2.16436e-07
-1.86064e-07
-1.60819e-07
-1.39731e-07
-1.22019e-07
-1.07052e-07
-9.43243e-08
-8.34264e-08
-7.40264e-08
-6.5855e-08
-5.86956e-08
-5.23756e-08
-4.67578e-08
-4.17316e-08
-3.7206e-08
-3.3104e-08
-2.93602e-08
-2.5919e-08
-2.27341e-08
-1.97663e-08
-1.69819e-08
-1.4349e-08
-1.18362e-08
-9.41101e-09
-7.04527e-09
-4.67078e-09
-2.6773e-09
7.97202e-06
7.96831e-06
7.95858e-06
7.9428e-06
7.92048e-06
7.89041e-06
7.8509e-06
7.79978e-06
7.73433e-06
7.65111e-06
7.54583e-06
7.41321e-06
7.24683e-06
7.039e-06
6.78067e-06
6.4614e-06
6.06957e-06
5.59274e-06
5.01838e-06
4.33519e-06
3.53483e-06
2.61441e-06
1.57947e-06
4.47165e-07
-7.51015e-07
-1.96795e-06
-3.14227e-06
-4.20357e-06
-5.08164e-06
-5.71858e-06
-6.08077e-06
-6.16648e-06
-6.00564e-06
-5.65144e-06
-5.16712e-06
-4.61326e-06
-4.03961e-06
-3.48221e-06
-2.9643e-06
-2.49869e-06
-2.09052e-06
-1.73958e-06
-1.44235e-06
-1.19352e-06
-9.87033e-07
-8.1682e-07
-6.77168e-07
-5.62949e-07
-4.69693e-07
-3.93589e-07
-3.31441e-07
-2.80606e-07
-2.3892e-07
-2.0462e-07
-1.76279e-07
-1.52743e-07
-1.33084e-07
-1.16557e-07
-1.0257e-07
-9.06489e-08
-8.04135e-08
-7.15555e-08
-6.38262e-08
-5.70264e-08
-5.09991e-08
-4.56199e-08
-4.07892e-08
-3.64245e-08
-3.24554e-08
-2.88217e-08
-2.54723e-08
-2.23649e-08
-1.94641e-08
-1.67385e-08
-1.41581e-08
-1.16924e-08
-9.30866e-09
-6.97832e-09
-4.63317e-09
-2.66265e-09
7.98402e-06
7.98073e-06
7.97207e-06
7.95799e-06
7.93802e-06
7.911e-06
7.87532e-06
7.8289e-06
7.7691e-06
7.69255e-06
7.59501e-06
7.47119e-06
7.3146e-06
7.11737e-06
6.87009e-06
6.56179e-06
6.18001e-06
5.71117e-06
5.14129e-06
4.45723e-06
3.64866e-06
2.71066e-06
1.64711e-06
4.74374e-07
-7.75352e-07
-2.05217e-06
-3.2896e-06
-4.41e-06
-5.33498e-06
-5.99932e-06
-6.36516e-06
-6.43104e-06
-6.23174e-06
-5.82814e-06
-5.29159e-06
-4.68904e-06
-4.07408e-06
-3.48428e-06
-2.94278e-06
-2.46146e-06
-2.04405e-06
-1.68889e-06
-1.3911e-06
-1.14419e-06
-9.41183e-07
-7.75293e-07
-6.40306e-07
-5.30746e-07
-4.41921e-07
-3.69889e-07
-3.11391e-07
-2.63765e-07
-2.24859e-07
-1.92939e-07
-1.66614e-07
-1.44772e-07
-1.26525e-07
-1.1117e-07
-9.81501e-08
-8.70255e-08
-7.74433e-08
-6.91192e-08
-6.18249e-08
-5.53789e-08
-4.96391e-08
-4.44946e-08
-3.98561e-08
-3.56496e-08
-3.18111e-08
-2.82856e-08
-2.50264e-08
-2.19954e-08
-1.91605e-08
-1.64932e-08
-1.39654e-08
-1.15469e-08
-9.20478e-09
-6.90997e-09
-4.59414e-09
-2.64665e-09
7.99551e-06
7.99261e-06
7.98499e-06
7.97256e-06
7.95486e-06
7.93079e-06
7.89882e-06
7.85696e-06
7.80265e-06
7.73259e-06
7.64258e-06
7.52738e-06
7.38041e-06
7.19363e-06
6.95734e-06
6.66002e-06
6.28843e-06
5.82789e-06
5.26295e-06
4.5787e-06
3.76273e-06
2.80802e-06
1.71666e-06
5.04043e-07
-7.97107e-07
-2.13425e-06
-3.43575e-06
-4.61656e-06
-5.58968e-06
-6.28214e-06
-6.65147e-06
-6.69652e-06
-6.45725e-06
-6.00282e-06
-5.41306e-06
-4.76149e-06
-4.10544e-06
-3.4838e-06
-2.91944e-06
-2.42312e-06
-1.99713e-06
-1.63829e-06
-1.34034e-06
-1.09561e-06
-8.96231e-07
-7.3473e-07
-6.04409e-07
-4.99468e-07
-4.15006e-07
-3.46964e-07
-2.92028e-07
-2.47526e-07
-2.11317e-07
-1.81702e-07
-1.57326e-07
-1.37119e-07
-1.20235e-07
-1.06008e-07
-9.39188e-08
-8.35597e-08
-7.46048e-08
-6.67931e-08
-5.99157e-08
-5.38084e-08
-4.83439e-08
-4.34238e-08
-3.89693e-08
-3.4914e-08
-3.12002e-08
-2.77778e-08
-2.46044e-08
-2.16459e-08
-1.88739e-08
-1.62625e-08
-1.37852e-08
-1.14123e-08
-9.11046e-09
-6.84984e-09
-4.56172e-09
-2.63508e-09
8.00619e-06
8.00367e-06
7.99701e-06
7.98613e-06
7.97056e-06
7.94926e-06
7.92079e-06
7.88322e-06
7.83409e-06
7.77016e-06
7.68731e-06
7.58029e-06
7.4425e-06
7.26575e-06
7.04004e-06
6.75338e-06
6.39181e-06
5.9396e-06
5.37991e-06
4.69607e-06
3.87365e-06
2.90353e-06
1.7859e-06
5.35074e-07
-8.15915e-07
-2.21208e-06
-3.57679e-06
-4.81759e-06
-5.83874e-06
-6.55923e-06
-6.93183e-06
-6.95564e-06
-6.67606e-06
-6.17079e-06
-5.52839e-06
-4.82887e-06
-4.13311e-06
-3.48107e-06
-2.89517e-06
-2.38497e-06
-1.95125e-06
-1.58931e-06
-1.29154e-06
-1.04917e-06
-8.53439e-07
-6.96252e-07
-5.70458e-07
-4.69957e-07
-3.89665e-07
-3.25418e-07
-2.73859e-07
-2.32306e-07
-1.98641e-07
-1.71193e-07
-1.48647e-07
-1.29973e-07
-1.14363e-07
-1.01191e-07
-8.9971e-08
-8.03259e-08
-7.19558e-08
-6.46212e-08
-5.81317e-08
-5.23391e-08
-4.71304e-08
-4.24189e-08
-3.81354e-08
-3.42208e-08
-3.0623e-08
-2.72963e-08
-2.42027e-08
-2.13117e-08
-1.85984e-08
-1.60396e-08
-1.36102e-08
-1.12809e-08
-9.01768e-09
-6.78983e-09
-4.52818e-09
-2.6217e-09
8.01577e-06
8.01359e-06
8.00781e-06
7.99834e-06
7.9847e-06
7.96593e-06
7.94064e-06
7.90699e-06
7.86258e-06
7.80427e-06
7.72798e-06
7.62849e-06
7.49916e-06
7.3317e-06
7.11584e-06
6.8392e-06
6.48713e-06
6.04294e-06
5.48853e-06
4.80559e-06
3.97777e-06
2.99387e-06
1.85225e-06
5.65991e-07
-8.31705e-07
-2.2837e-06
-3.70867e-06
-5.00704e-06
-6.07449e-06
-6.82203e-06
-7.19758e-06
-7.20052e-06
-6.88167e-06
-6.32731e-06
-5.63455e-06
-4.88969e-06
-4.15681e-06
-3.47669e-06
-2.87116e-06
-2.34851e-06
-1.90802e-06
-1.54358e-06
-1.24628e-06
-1.0063e-06
-8.141e-07
-6.60996e-07
-5.39438e-07
-4.4306e-07
-3.66618e-07
-3.05861e-07
-2.57394e-07
-2.18537e-07
-1.8719e-07
-1.61713e-07
-1.4083e-07
-1.23545e-07
-1.09089e-07
-9.68701e-08
-8.64355e-08
-7.74347e-08
-6.95914e-08
-6.2686e-08
-5.65448e-08
-5.10344e-08
-4.60546e-08
-4.15298e-08
-3.73991e-08
-3.36102e-08
-3.01155e-08
-2.68738e-08
-2.38506e-08
-2.10193e-08
-1.8358e-08
-1.58459e-08
-1.34594e-08
-1.11692e-08
-8.94085e-09
-6.74237e-09
-4.50394e-09
-2.6141e-09
8.024e-06
8.02211e-06
8.01711e-06
8.00886e-06
7.99691e-06
7.98035e-06
7.95784e-06
7.92762e-06
7.88736e-06
7.83399e-06
7.76347e-06
7.67062e-06
7.54879e-06
7.38958e-06
7.18253e-06
6.91487e-06
6.5714e-06
6.1346e-06
5.58521e-06
4.90348e-06
4.07128e-06
3.07554e-06
1.91281e-06
5.95011e-07
-8.44698e-07
-2.34733e-06
-3.82738e-06
-5.1787e-06
-6.28893e-06
-7.06149e-06
-7.43962e-06
-7.42294e-06
-7.06748e-06
-6.46767e-06
-5.72876e-06
-4.94276e-06
-4.17656e-06
-3.47152e-06
-2.84876e-06
-2.31534e-06
-1.86917e-06
-1.50278e-06
-1.2061e-06
-9.6841e-07
-7.7945e-07
-6.30032e-07
-5.12261e-07
-4.19547e-07
-3.46508e-07
-2.88824e-07
-2.43073e-07
-2.06575e-07
-1.77253e-07
-1.53495e-07
-1.34058e-07
-1.17981e-07
-1.04526e-07
-9.31333e-08
-8.3378e-08
-7.49339e-08
-6.75456e-08
-6.10102e-08
-5.51688e-08
-4.9901e-08
-4.51181e-08
-4.07538e-08
-3.67548e-08
-3.3074e-08
-2.96683e-08
-2.64997e-08
-2.35372e-08
-2.07572e-08
-1.8141e-08
-1.56698e-08
-1.33212e-08
-1.10659e-08
-8.86875e-09
-6.69667e-09
-4.47915e-09
-2.60466e-09
8.03065e-06
8.02901e-06
8.02464e-06
8.0174e-06
8.00686e-06
7.99213e-06
7.97193e-06
7.94456e-06
7.90775e-06
7.85848e-06
7.79278e-06
7.70549e-06
7.58994e-06
7.43766e-06
7.23804e-06
6.978e-06
6.64188e-06
6.21146e-06
5.66652e-06
4.98607e-06
4.15047e-06
3.145e-06
1.96463e-06
6.20164e-07
-8.55368e-07
-2.40151e-06
-3.92918e-06
-5.32654e-06
-6.47412e-06
-7.26855e-06
-7.64883e-06
-7.61475e-06
-7.22705e-06
-6.58751e-06
-5.80856e-06
-4.9872e-06
-4.19265e-06
-3.46659e-06
-2.82945e-06
-2.28716e-06
-1.83639e-06
-1.46852e-06
-1.17251e-06
-9.36841e-07
-7.50664e-07
-6.04377e-07
-4.89798e-07
-4.00155e-07
-3.29959e-07
-2.74833e-07
-2.31335e-07
-1.96793e-07
-1.69143e-07
-1.46803e-07
-1.28557e-07
-1.13472e-07
-1.00838e-07
-9.01209e-08
-8.09202e-08
-7.293e-08
-6.59114e-08
-5.9676e-08
-5.40768e-08
-4.90044e-08
-4.43794e-08
-4.01436e-08
-3.62497e-08
-3.26552e-08
-2.932e-08
-2.6209e-08
-2.32939e-08
-2.0554e-08
-1.7973e-08
-1.5534e-08
-1.32154e-08
-1.09882e-08
-8.81613e-09
-6.66523e-09
-4.4641e-09
-2.60078e-09
8.03554e-06
8.03408e-06
8.0302e-06
8.02374e-06
8.01427e-06
8.00094e-06
7.9825e-06
7.95732e-06
7.92316e-06
7.87705e-06
7.81507e-06
7.73206e-06
7.62136e-06
7.47446e-06
7.28061e-06
7.02652e-06
6.69616e-06
6.27077e-06
5.72941e-06
5.05007e-06
4.21195e-06
3.19899e-06
2.00489e-06
6.39484e-07
-8.64344e-07
-2.44504e-06
-4.01074e-06
-5.44503e-06
-6.62268e-06
-7.43472e-06
-7.81666e-06
-7.76839e-06
-7.35452e-06
-6.68292e-06
-5.87189e-06
-5.02243e-06
-4.20551e-06
-3.46298e-06
-2.81465e-06
-2.2655e-06
-1.81122e-06
-1.44227e-06
-1.14682e-06
-9.12741e-07
-7.28733e-07
-5.84869e-07
-4.7275e-07
-3.85467e-07
-3.17448e-07
-2.64275e-07
-2.22495e-07
-1.89438e-07
-1.63057e-07
-1.41791e-07
-1.24444e-07
-1.10106e-07
-9.80886e-08
-8.78787e-08
-7.9093e-08
-7.14414e-08
-6.46981e-08
-5.86853e-08
-5.32653e-08
-4.83369e-08
-4.38282e-08
-3.96869e-08
-3.58704e-08
-3.23393e-08
-2.9056e-08
-2.59872e-08
-2.31069e-08
-2.03965e-08
-1.78414e-08
-1.54266e-08
-1.31309e-08
-1.09252e-08
-8.77278e-09
-6.63853e-09
-4.45035e-09
-2.59616e-09
8.03853e-06
8.03719e-06
8.03363e-06
8.02769e-06
8.01893e-06
8.00652e-06
7.98927e-06
7.96555e-06
7.93315e-06
7.88916e-06
7.82966e-06
7.74953e-06
7.6421e-06
7.49881e-06
7.30885e-06
7.05878e-06
6.73231e-06
6.31033e-06
5.77137e-06
5.09277e-06
4.2529e-06
3.23476e-06
2.03115e-06
6.51229e-07
-8.72276e-07
-2.47708e-06
-4.06938e-06
-5.52957e-06
-6.72835e-06
-7.55277e-06
-7.9358e-06
-7.8774e-06
-7.44499e-06
-6.75076e-06
-5.91721e-06
-5.04812e-06
-4.21563e-06
-3.46169e-06
-2.80561e-06
-2.2517e-06
-1.79498e-06
-1.42524e-06
-1.13012e-06
-8.97075e-07
-7.1449e-07
-5.72221e-07
-4.61723e-07
-3.75993e-07
-3.09405e-07
-2.57515e-07
-2.16858e-07
-1.84771e-07
-1.59216e-07
-1.38646e-07
-1.2188e-07
-1.08022e-07
-9.63998e-08
-8.65122e-08
-7.79888e-08
-7.05498e-08
-6.3978e-08
-5.81025e-08
-5.27919e-08
-4.79503e-08
-4.35109e-08
-3.94254e-08
-3.56543e-08
-3.216e-08
-2.89064e-08
-2.58615e-08
-2.30004e-08
-2.03061e-08
-1.77654e-08
-1.53641e-08
-1.30818e-08
-1.0889e-08
-8.74854e-09
-6.62447e-09
-4.44405e-09
-2.59496e-09
8.03951e-06
8.03823e-06
8.03482e-06
8.02912e-06
8.02069e-06
8.00872e-06
7.99202e-06
7.96898e-06
7.93743e-06
7.89443e-06
7.83611e-06
7.75735e-06
7.65147e-06
7.50991e-06
7.3218e-06
7.07362e-06
6.74898e-06
6.32857e-06
5.79067e-06
5.11226e-06
4.2713e-06
3.25032e-06
2.04166e-06
6.5411e-07
-8.79673e-07
-2.49703e-06
-4.10316e-06
-5.57681e-06
-6.78655e-06
-7.61734e-06
-8.00084e-06
-7.93706e-06
-7.49487e-06
-6.78877e-06
-5.94342e-06
-5.06406e-06
-4.22342e-06
-3.46345e-06
-2.80323e-06
-2.24673e-06
-1.78857e-06
-1.41827e-06
-1.12316e-06
-8.90479e-07
-7.08475e-07
-5.66885e-07
-4.57089e-07
-3.72037e-07
-3.06076e-07
-2.54746e-07
-2.14579e-07
-1.82911e-07
-1.57712e-07
-1.37437e-07
-1.20915e-07
-1.07257e-07
-9.57947e-08
-8.60357e-08
-7.76146e-08
-7.02567e-08
-6.37484e-08
-5.7922e-08
-5.26489e-08
-4.78358e-08
-4.3418e-08
-3.93493e-08
-3.55913e-08
-3.21074e-08
-2.88619e-08
-2.58231e-08
-2.29667e-08
-2.02761e-08
-1.77389e-08
-1.53415e-08
-1.30635e-08
-1.08755e-08
-8.73978e-09
-6.61993e-09
-4.44269e-09
-2.59556e-09
8.03845e-06
8.03716e-06
8.03373e-06
8.02798e-06
8.0195e-06
8.00745e-06
7.99066e-06
7.96752e-06
7.93583e-06
7.89269e-06
7.8342e-06
7.75524e-06
7.64915e-06
7.50734e-06
7.31896e-06
7.07048e-06
6.7455e-06
6.32472e-06
5.78642e-06
5.10757e-06
4.26615e-06
3.24469e-06
2.03553e-06
6.47487e-07
-8.86765e-07
-2.50454e-06
-4.11102e-06
-5.58491e-06
-6.79477e-06
-7.62553e-06
-8.00885e-06
-7.94478e-06
-7.50221e-06
-6.7957e-06
-5.94994e-06
-5.07014e-06
-4.22906e-06
-3.46865e-06
-2.80799e-06
-2.25105e-06
-1.79248e-06
-1.42178e-06
-1.12631e-06
-8.93294e-07
-7.1098e-07
-5.69109e-07
-4.59059e-07
-3.73778e-07
-3.07611e-07
-2.56097e-07
-2.15766e-07
-1.83952e-07
-1.58622e-07
-1.38233e-07
-1.21609e-07
-1.0786e-07
-9.63181e-08
-8.64884e-08
-7.8005e-08
-7.05923e-08
-6.40359e-08
-5.81674e-08
-5.28572e-08
-4.80117e-08
-4.35656e-08
-3.94725e-08
-3.56937e-08
-3.21921e-08
-2.89314e-08
-2.58796e-08
-2.30119e-08
-2.03115e-08
-1.77659e-08
-1.53614e-08
-1.30778e-08
-1.08854e-08
-8.74631e-09
-6.62393e-09
-4.44471e-09
-2.59632e-09
8.03535e-06
8.03399e-06
8.03035e-06
8.02427e-06
8.01534e-06
8.00272e-06
7.9852e-06
7.96115e-06
7.92838e-06
7.88395e-06
7.82394e-06
7.74324e-06
7.63516e-06
7.49115e-06
7.30037e-06
7.04938e-06
6.7219e-06
6.29882e-06
5.75866e-06
5.07876e-06
4.23751e-06
3.21793e-06
2.01285e-06
6.3147e-07
-8.93428e-07
-2.49948e-06
-4.09281e-06
-5.55372e-06
-6.75284e-06
-7.57716e-06
-7.95967e-06
-7.90041e-06
-7.46689e-06
-6.77145e-06
-5.93664e-06
-5.06626e-06
-4.23247e-06
-3.4772e-06
-2.8198e-06
-2.26461e-06
-1.80665e-06
-1.43575e-06
-1.13954e-06
-9.05489e-07
-7.21981e-07
-5.78872e-07
-4.67615e-07
-3.812e-07
-3.13997e-07
-2.61557e-07
-2.2041e-07
-1.87885e-07
-1.61942e-07
-1.41028e-07
-1.23957e-07
-1.09829e-07
-9.79674e-08
-8.78685e-08
-7.91589e-08
-7.15564e-08
-6.48411e-08
-5.88397e-08
-5.34186e-08
-4.84804e-08
-4.39568e-08
-3.97987e-08
-3.59655e-08
-3.24184e-08
-2.91197e-08
-2.6036e-08
-2.31414e-08
-2.04179e-08
-1.78522e-08
-1.54302e-08
-1.3131e-08
-1.09251e-08
-8.77456e-09
-6.64283e-09
-4.45619e-09
-2.60217e-09
8.03028e-06
8.02876e-06
8.02475e-06
8.01808e-06
8.00832e-06
7.99462e-06
7.97574e-06
7.95003e-06
7.91524e-06
7.86841e-06
7.80559e-06
7.72163e-06
7.60986e-06
7.46175e-06
7.26655e-06
7.01096e-06
6.67893e-06
6.25173e-06
5.70838e-06
5.02691e-06
4.18653e-06
3.17121e-06
1.9747e-06
6.06907e-07
-8.99194e-07
-2.48193e-06
-4.0493e-06
-5.48475e-06
-6.66294e-06
-7.47482e-06
-7.85592e-06
-7.80624e-06
-7.39059e-06
-6.71701e-06
-5.90392e-06
-5.05236e-06
-4.23329e-06
-3.48859e-06
-2.83809e-06
-2.28682e-06
-1.83052e-06
-1.45965e-06
-1.16241e-06
-9.26672e-07
-7.41141e-07
-5.9589e-07
-4.82516e-07
-3.941e-07
-3.25065e-07
-2.70982e-07
-2.28389e-07
-1.94608e-07
-1.67584e-07
-1.45747e-07
-1.27894e-07
-1.13108e-07
-1.00693e-07
-9.01326e-08
-8.10377e-08
-7.31143e-08
-6.61325e-08
-5.99103e-08
-5.43067e-08
-4.92174e-08
-4.45686e-08
-4.03064e-08
-3.63865e-08
-3.27674e-08
-2.94089e-08
-2.62754e-08
-2.33391e-08
-2.058e-08
-1.79833e-08
-1.55337e-08
-1.32098e-08
-1.09821e-08
-8.81276e-09
-6.66557e-09
-4.46702e-09
-2.60514e-09
8.02333e-06
8.02161e-06
8.01705e-06
8.00952e-06
7.99859e-06
7.98335e-06
7.96253e-06
7.93442e-06
7.89674e-06
7.84647e-06
7.77961e-06
7.691e-06
7.57397e-06
7.42002e-06
7.21852e-06
6.95641e-06
6.618e-06
6.18508e-06
5.63742e-06
4.95404e-06
4.11535e-06
3.10665e-06
1.923e-06
5.7528e-07
-9.03331e-07
-2.45223e-06
-3.98215e-06
-5.38107e-06
-6.52937e-06
-7.32358e-06
-7.70274e-06
-7.66678e-06
-7.27666e-06
-6.63443e-06
-5.85267e-06
-5.02845e-06
-4.23096e-06
-3.50193e-06
-2.86183e-06
-2.31663e-06
-1.86308e-06
-1.49259e-06
-1.19411e-06
-9.56153e-07
-7.67876e-07
-6.19674e-07
-5.0336e-07
-4.12151e-07
-3.40547e-07
-2.8416e-07
-2.39535e-07
-2.03988e-07
-1.75445e-07
-1.52312e-07
-1.33363e-07
-1.17654e-07
-1.04468e-07
-9.32638e-08
-8.36329e-08
-7.52645e-08
-6.7914e-08
-6.13873e-08
-5.55326e-08
-5.02364e-08
-4.54165e-08
-4.10123e-08
-3.69743e-08
-3.3257e-08
-2.9817e-08
-2.66158e-08
-2.36228e-08
-2.08152e-08
-1.81762e-08
-1.56887e-08
-1.33307e-08
-1.10724e-08
-8.8764e-09
-6.70706e-09
-4.49095e-09
-2.61599e-09
8.01466e-06
8.01268e-06
8.00744e-06
7.99881e-06
7.98637e-06
7.96916e-06
7.94586e-06
7.91471e-06
7.87334e-06
7.81869e-06
7.74671e-06
7.65219e-06
7.52847e-06
7.36714e-06
7.15773e-06
6.88745e-06
6.5411e-06
6.10115e-06
5.54835e-06
4.86295e-06
4.02688e-06
3.02712e-06
1.86031e-06
5.38495e-07
-9.05011e-07
-2.41103e-06
-3.89383e-06
-5.24705e-06
-6.35815e-06
-7.13045e-06
-7.50721e-06
-7.48823e-06
-7.12982e-06
-6.52671e-06
-5.78431e-06
-4.99473e-06
-4.22487e-06
-3.51611e-06
-2.88965e-06
-2.35261e-06
-1.90296e-06
-1.53326e-06
-1.23348e-06
-9.92918e-07
-8.01311e-07
-6.49477e-07
-5.29511e-07
-4.34814e-07
-3.59992e-07
-3.00708e-07
-2.53526e-07
-2.15752e-07
-1.85293e-07
-1.60526e-07
-1.40194e-07
-1.23323e-07
-1.09165e-07
-9.71504e-08
-8.68463e-08
-7.79196e-08
-7.01075e-08
-6.32003e-08
-5.70327e-08
-5.14792e-08
-4.64472e-08
-4.18676e-08
-3.76841e-08
-3.38459e-08
-3.03059e-08
-2.70218e-08
-2.39594e-08
-2.10929e-08
-1.84024e-08
-1.5869e-08
-1.34694e-08
-1.11739e-08
-8.94548e-09
-6.74916e-09
-4.51194e-09
-2.62243e-09
8.00448e-06
8.00218e-06
7.99612e-06
7.98619e-06
7.97195e-06
7.9524e-06
7.92616e-06
7.89138e-06
7.84564e-06
7.78579e-06
7.70774e-06
7.60624e-06
7.47465e-06
7.30465e-06
7.08597e-06
6.8062e-06
6.45068e-06
6.00275e-06
5.44428e-06
4.75701e-06
3.92462e-06
2.936e-06
1.78959e-06
4.98647e-07
-9.03463e-07
-2.35937e-06
-3.78751e-06
-5.08806e-06
-6.1565e-06
-6.90374e-06
-7.27772e-06
-7.27803e-06
-6.95579e-06
-6.39758e-06
-5.70074e-06
-4.95167e-06
-4.21447e-06
-3.52997e-06
-2.92007e-06
-2.39314e-06
-1.94853e-06
-1.58017e-06
-1.27918e-06
-1.03578e-06
-8.40421e-07
-6.84428e-07
-5.60242e-07
-4.61488e-07
-3.82904e-07
-3.20224e-07
-2.70035e-07
-2.2964e-07
-1.96923e-07
-1.70229e-07
-1.48265e-07
-1.30021e-07
-1.14715e-07
-1.01745e-07
-9.06463e-08
-8.10613e-08
-7.27052e-08
-6.53496e-08
-5.88135e-08
-5.29571e-08
-4.76758e-08
-4.28899e-08
-3.85353e-08
-3.4555e-08
-3.08971e-08
-2.75151e-08
-2.43707e-08
-2.14344e-08
-1.8683e-08
-1.60952e-08
-1.36464e-08
-1.13066e-08
-9.03945e-09
-6.8106e-09
-4.54723e-09
-2.63788e-09
7.99301e-06
7.99036e-06
7.98337e-06
7.97196e-06
7.95568e-06
7.93349e-06
7.90391e-06
7.86503e-06
7.81435e-06
7.74863e-06
7.66374e-06
7.55439e-06
7.41398e-06
7.2343e-06
7.00533e-06
6.71508e-06
6.34956e-06
5.89304e-06
5.32872e-06
4.63994e-06
3.81235e-06
2.83688e-06
1.71388e-06
4.57794e-07
-8.98118e-07
-2.29863e-06
-3.66684e-06
-4.91004e-06
-5.93227e-06
-6.65243e-06
-7.0233e-06
-7.04422e-06
-6.76089e-06
-6.25134e-06
-5.60435e-06
-4.90006e-06
-4.19941e-06
-3.5424e-06
-2.95155e-06
-2.43648e-06
-1.99805e-06
-1.63164e-06
-1.32965e-06
-1.08335e-06
-8.83996e-07
-7.23483e-07
-5.94658e-07
-4.91411e-07
-4.0864e-07
-3.42164e-07
-2.88607e-07
-2.45267e-07
-2.10009e-07
-1.81144e-07
-1.5734e-07
-1.37549e-07
-1.20948e-07
-1.06898e-07
-9.49037e-08
-8.45765e-08
-7.56071e-08
-6.77464e-08
-6.07954e-08
-5.45985e-08
-4.90371e-08
-4.40201e-08
-3.94739e-08
-3.53349e-08
-3.15452e-08
-2.80539e-08
-2.48181e-08
-2.18042e-08
-1.89853e-08
-1.63373e-08
-1.38343e-08
-1.14459e-08
-9.1361e-09
-6.87145e-09
-4.57936e-09
-2.64908e-09
7.98053e-06
7.97749e-06
7.96949e-06
7.95646e-06
7.93796e-06
7.91287e-06
7.87965e-06
7.8363e-06
7.78024e-06
7.70815e-06
7.61584e-06
7.49801e-06
7.34809e-06
7.15802e-06
6.91807e-06
6.61672e-06
6.24072e-06
5.77539e-06
5.20531e-06
4.5156e-06
3.69391e-06
2.73335e-06
1.6361e-06
4.17773e-07
-8.88705e-07
-2.23053e-06
-3.53578e-06
-4.71915e-06
-5.69342e-06
-6.38552e-06
-6.75302e-06
-6.79499e-06
-6.5517e-06
-6.09263e-06
-5.49786e-06
-4.84106e-06
-4.17963e-06
-3.55251e-06
-2.98267e-06
-2.48097e-06
-2.04978e-06
-1.68597e-06
-1.38332e-06
-1.13421e-06
-9.30777e-07
-7.65549e-07
-6.31826e-07
-5.23794e-07
-4.3654e-07
-3.65983e-07
-3.0879e-07
-2.62267e-07
-2.24255e-07
-1.93033e-07
-1.6723e-07
-1.45755e-07
-1.27745e-07
-1.12521e-07
-9.95519e-08
-8.84167e-08
-7.87796e-08
-7.03691e-08
-6.29664e-08
-5.63987e-08
-5.05325e-08
-4.5264e-08
-4.05095e-08
-3.61975e-08
-3.22643e-08
-2.86535e-08
-2.53178e-08
-2.22189e-08
-1.93262e-08
-1.66125e-08
-1.40505e-08
-1.16091e-08
-9.25273e-09
-6.94858e-09
-4.62406e-09
-2.66843e-09
7.96733e-06
7.96388e-06
7.9548e-06
7.94006e-06
7.9192e-06
7.89105e-06
7.85398e-06
7.80591e-06
7.74417e-06
7.66538e-06
7.56528e-06
7.43856e-06
7.27872e-06
7.07786e-06
6.82657e-06
6.51385e-06
6.12724e-06
5.65318e-06
5.07771e-06
4.38774e-06
3.57301e-06
2.62872e-06
1.55889e-06
3.80078e-07
-8.75283e-07
-2.15703e-06
-3.39838e-06
-4.52146e-06
-5.44763e-06
-6.1116e-06
-6.47554e-06
-6.53821e-06
-6.33469e-06
-5.92619e-06
-5.3843e-06
-4.77614e-06
-4.15538e-06
-3.55967e-06
-3.01226e-06
-2.52511e-06
-2.10205e-06
-1.74149e-06
-1.43859e-06
-1.18689e-06
-9.79446e-07
-8.09467e-07
-6.70738e-07
-5.57775e-07
-4.65868e-07
-3.91057e-07
-3.3006e-07
-2.80195e-07
-2.39287e-07
-2.05584e-07
-1.77672e-07
-1.54419e-07
-1.3492e-07
-1.18455e-07
-1.04454e-07
-9.24642e-08
-8.2121e-08
-7.31287e-08
-6.52481e-08
-5.82883e-08
-5.21e-08
-4.65659e-08
-4.15918e-08
-3.70975e-08
-3.30129e-08
-2.92762e-08
-2.5835e-08