/*--------------------------------*- C++ -*----------------------------------*\
| =========                 |                                                 |
| \\      /  F ield         | OpenFOAM: The Open Source CFD Toolbox           |
|  \\    /   O peration     | Version:  2512                                  |
|   \\  /    A nd           | Website:  www.openfoam.com                      |
|    \\/     M anipulation  |                                                 |
\*---------------------------------------------------------------------------*/
FoamFile
{
    version     2.0;
    format      ascii;
    arch        "LSB;label=32;scalar=64";
    class       volScalarField;
    location    "100";
    object      p;
}
// * * * * * * * * * * * * * * * * * * * * * * * * * * * * * * * * * * * * * //

dimensions      [0 2 -2 0 0 0 0];

internalField   nonuniform List<scalar> 
248793
(
0.000101774
0.000101635
0.000101279
0.00010071
9.99238e-05
9.88928e-05
9.75754e-05
9.59194e-05
9.38612e-05
9.13244e-05
8.82196e-05
8.44451e-05
7.98886e-05
7.44292e-05
6.79417e-05
6.03038e-05
5.14059e-05
4.11618e-05
2.95226e-05
1.64936e-05
2.15356e-06
-1.33265e-05
-2.96683e-05
-4.64778e-05
-6.3249e-05
-7.93833e-05
-9.42273e-05
-0.000107127
-0.000117496
-0.000124885
-0.00012904
-0.000129939
-0.000127786
-0.000122981
-0.000116055
-0.000107604
-9.8213e-05
-8.8412e-05
-7.8639e-05
-6.92297e-05
-6.04192e-05
-5.23538e-05
-4.51059e-05
-3.86915e-05
-3.30856e-05
-2.82359e-05
-2.40748e-05
-2.05266e-05
-1.75149e-05
-1.49656e-05
-1.28105e-05
-1.09881e-05
-9.44479e-06
-8.13501e-06
-7.02068e-06
-6.07069e-06
-5.25988e-06
-4.56804e-06
-3.97899e-06
-3.47973e-06
-3.05967e-06
-2.71002e-06
-2.42306e-06
-2.19159e-06
-2.00837e-06
-1.86577e-06
-1.75558e-06
-1.66912e-06
-1.5975e-06
-1.53201e-06
-1.46463e-06
-1.38845e-06
-1.29802e-06
-1.1895e-06
-1.06065e-06
-9.10845e-07
-7.40983e-07
-5.53675e-07
-3.5293e-07
-1.54136e-07
0.000101813
0.000101675
0.000101322
0.000100759
9.99797e-05
9.89579e-05
9.76519e-05
9.60098e-05
9.39681e-05
9.14504e-05
8.83672e-05
8.46167e-05
8.0086e-05
7.46532e-05
6.8192e-05
6.0578e-05
5.16987e-05
4.14644e-05
2.98221e-05
1.67731e-05
2.3921e-06
-1.3153e-05
-2.95854e-05
-4.65096e-05
-6.3415e-05
-7.96941e-05
-9.46812e-05
-0.000107708
-0.000118173
-0.000125615
-0.000129773
-0.000130627
-0.000128387
-0.000123466
-0.000116411
-0.000107831
-9.83242e-05
-8.84254e-05
-7.85761e-05
-6.91119e-05
-6.02659e-05
-5.21812e-05
-4.49269e-05
-3.85154e-05
-3.29189e-05
-2.80829e-05
-2.39373e-05
-2.04056e-05
-1.74099e-05
-1.4876e-05
-1.27349e-05
-1.09251e-05
-9.39296e-06
-8.0929e-06
-6.987e-06
-6.04428e-06
-5.23968e-06
-4.55313e-06
-3.96846e-06
-3.47274e-06
-3.0554e-06
-2.7077e-06
-2.42199e-06
-2.19116e-06
-2.00805e-06
-1.86515e-06
-1.75436e-06
-1.66712e-06
-1.59464e-06
-1.52833e-06
-1.46026e-06
-1.38363e-06
-1.29304e-06
-1.1847e-06
-1.05638e-06
-9.07451e-07
-7.38717e-07
-5.52623e-07
-3.52922e-07
-1.54117e-07
0.000101889
0.000101753
0.000101407
0.000100854
0.00010009
9.90861e-05
9.78029e-05
9.61883e-05
9.41792e-05
9.16994e-05
8.86592e-05
8.49564e-05
8.04768e-05
7.50971e-05
6.8688e-05
6.11213e-05
5.22792e-05
4.20647e-05
3.04172e-05
1.73294e-05
2.86817e-06
-1.28052e-05
-2.94166e-05
-4.65686e-05
-6.37408e-05
-8.03086e-05
-9.55817e-05
-0.000108862
-0.000119519
-0.000127067
-0.000131234
-0.000131996
-0.000129582
-0.00012443
-0.000117118
-0.000108282
-9.85433e-05
-8.84502e-05
-7.84498e-05
-6.88772e-05
-5.99613e-05
-5.18388e-05
-4.4572e-05
-3.81668e-05
-3.25892e-05
-2.77799e-05
-2.36653e-05
-2.01659e-05
-1.72021e-05
-1.46982e-05
-1.25846e-05
-1.07996e-05
-9.28928e-06
-8.00828e-06
-6.91889e-06
-5.99044e-06
-5.19812e-06
-4.52202e-06
-3.94611e-06
-3.45751e-06
-3.04574e-06
-2.70215e-06
-2.4192e-06
-2.18995e-06
-2.00742e-06
-1.86429e-06
-1.75267e-06
-1.66418e-06
-1.59024e-06
-1.52247e-06
-1.45312e-06
-1.37554e-06
-1.28448e-06
-1.17623e-06
-1.04861e-06
-9.00936e-07
-7.33931e-07
-5.49799e-07
-3.51856e-07
-1.53793e-07
0.000102001
0.000101869
0.000101533
0.000100995
0.000100251
9.92747e-05
9.8025e-05
9.64512e-05
9.44903e-05
9.20665e-05
8.909e-05
8.54577e-05
8.1054e-05
7.5753e-05
6.94214e-05
6.19254e-05
5.3139e-05
4.29552e-05
3.13015e-05
1.81582e-05
3.57979e-06
-1.22821e-05
-2.91583e-05
-4.66483e-05
-6.42181e-05
-8.12174e-05
-9.69189e-05
-0.00011058
-0.000121526
-0.000129234
-0.000133411
-0.000134036
-0.00013136
-0.00012586
-0.000118162
-0.000108944
-9.88603e-05
-8.84792e-05
-7.82557e-05
-6.85239e-05
-5.95061e-05
-5.13293e-05
-4.40454e-05
-3.76503e-05
-3.21014e-05
-2.73322e-05
-2.32636e-05
-1.9812e-05
-1.68952e-05
-1.44356e-05
-1.23627e-05
-1.0614e-05
-9.13583e-06
-7.88284e-06
-6.81776e-06
-5.91035e-06
-5.13618e-06
-4.4756e-06
-3.91274e-06
-3.43483e-06
-3.03148e-06
-2.69417e-06
-2.41557e-06
-2.18895e-06
-2.00761e-06
-1.86448e-06
-1.75193e-06
-1.66189e-06
-1.58603e-06
-1.51626e-06
-1.4451e-06
-1.36614e-06
-1.27431e-06
-1.16603e-06
-1.03919e-06
-8.93091e-07
-7.28321e-07
-5.46794e-07
-3.51258e-07
-1.54429e-07
0.000102145
0.000102019
0.000101695
0.000101177
0.000100461
9.95191e-05
9.83131e-05
9.67922e-05
9.48943e-05
9.25435e-05
8.965e-05
8.61099e-05
8.18056e-05
7.66079e-05
7.03785e-05
6.2976e-05
5.4264e-05
4.41226e-05
3.24637e-05
1.92509e-05
4.52241e-06
-1.15839e-05
-2.88058e-05
-4.67395e-05
-6.48336e-05
-8.24043e-05
-9.86752e-05
-0.000112845
-0.000124176
-0.000132097
-0.000136287
-0.000136727
-0.000133699
-0.000127736
-0.000119524
-0.0001098
-9.9262e-05
-8.85036e-05
-7.79895e-05
-6.80519e-05
-5.89035e-05
-5.06583e-05
-4.33544e-05
-3.69744e-05
-3.14644e-05
-2.67485e-05
-2.27404e-05
-1.93516e-05
-1.64962e-05
-1.40944e-05
-1.20744e-05
-1.03731e-05
-8.93661e-06
-7.71998e-06
-6.68646e-06
-5.80638e-06
-5.05577e-06
-4.41535e-06
-3.86944e-06
-3.40539e-06
-3.01296e-06
-2.68381e-06
-2.41086e-06
-2.18769e-06
-2.00792e-06
-1.86483e-06
-1.75113e-06
-1.65909e-06
-1.58072e-06
-1.50828e-06
-1.43463e-06
-1.35368e-06
-1.26058e-06
-1.15193e-06
-1.02571e-06
-8.812e-07
-7.18856e-07
-5.40278e-07
-3.47652e-07
-1.52971e-07
0.000102319
0.000102198
0.00010189
0.000101396
0.000100713
9.98135e-05
9.86603e-05
9.72035e-05
9.53817e-05
9.31195e-05
9.03269e-05
8.6899e-05
8.27161e-05
7.7645e-05
7.15413e-05
6.42545e-05
5.56359e-05
4.55497e-05
3.38891e-05
2.05965e-05
5.68964e-06
-1.07111e-05
-2.83533e-05
-4.68302e-05
-6.557e-05
-8.38478e-05
-0.000100826
-0.000115629
-0.000127443
-0.00013563
-0.000139835
-0.000140041
-0.000136573
-0.000130029
-0.000121178
-0.000110829
-9.97317e-05
-8.85124e-05
-7.76463e-05
-6.74614e-05
-5.81579e-05
-4.98336e-05
-4.25088e-05
-3.61502e-05
-3.06896e-05
-2.604e-05
-2.21066e-05
-1.87946e-05
-1.60141e-05
-1.36827e-05
-1.17269e-05
-1.00829e-05
-8.69682e-06
-7.5241e-06
-6.52863e-06
-5.68148e-06
-4.95928e-06
-4.34314e-06
-3.81762e-06
-3.37025e-06
-2.99096e-06
-2.67165e-06
-2.40556e-06
-2.18666e-06
-2.00897e-06
-1.86618e-06
-1.75139e-06
-1.65726e-06
-1.5762e-06
-1.50088e-06
-1.42452e-06
-1.34139e-06
-1.24693e-06
-1.13793e-06
-1.01245e-06
-8.6976e-07
-7.10166e-07
-5.34927e-07
-3.45609e-07
-1.53262e-07
0.000102518
0.000102404
0.000102113
0.000101647
0.000101001
0.000100151
9.90582e-05
9.76753e-05
9.59413e-05
9.37814e-05
9.11056e-05
8.78079e-05
8.37662e-05
7.8843e-05
7.2887e-05
6.57373e-05
5.7231e-05
4.7214e-05
3.55573e-05
2.21789e-05
7.07111e-06
-9.66696e-06
-2.7796e-05
-4.69073e-05
-6.64064e-05
-8.55207e-05
-0.000103341
-0.0001189
-0.00013129
-0.000139797
-0.000144018
-0.000143942
-0.000139942
-0.000132704
-0.000123092
-0.000112003
-0.00010025
-8.84942e-05
-7.72217e-05
-6.67545e-05
-5.72768e-05
-4.88661e-05
-4.1522e-05
-3.51921e-05
-2.97918e-05
-2.52211e-05
-2.13756e-05
-1.81534e-05
-1.54601e-05
-1.32102e-05
-1.13286e-05
-9.7507e-06
-8.42251e-06
-7.30006e-06
-6.34808e-06
-5.53849e-06
-4.84861e-06
-4.26003e-06
-3.75757e-06
-3.32897e-06
-2.96436e-06
-2.65597e-06
-2.39744e-06
-2.18322e-06
-2.00778e-06
-1.86529e-06
-1.74929e-06
-1.65286e-06
-1.56885e-06
-1.49034e-06
-1.411e-06
-1.32545e-06
-1.22943e-06
-1.11994e-06
-9.95128e-07
-8.54247e-07
-6.97427e-07
-5.25603e-07
-3.39822e-07
-1.50562e-07
0.000102736
0.00010263
0.000102358
0.000101923
0.000101319
0.000100522
9.94973e-05
9.81963e-05
9.65598e-05
9.45138e-05
9.19682e-05
8.88162e-05
8.49332e-05
8.01768e-05
7.43883e-05
6.73955e-05
5.90199e-05
4.90869e-05
3.74425e-05
2.39763e-05
8.65161e-06
-8.45843e-06
-2.7131e-05
-4.69573e-05
-6.73189e-05
-8.739e-05
-0.000106178
-0.000122611
-0.00013567
-0.000144546
-0.000148785
-0.000148377
-0.000143759
-0.000135715
-0.000125227
-0.000113292
-0.000100796
-8.84376e-05
-7.67136e-05
-6.59364e-05
-5.62707e-05
-4.77703e-05
-4.04109e-05
-3.4118e-05
-2.87889e-05
-2.43091e-05
-2.05634e-05
-1.74426e-05
-1.48471e-05
-1.26884e-05
-1.08894e-05
-9.38483e-06
-8.12074e-06
-7.05382e-06
-6.14981e-06
-5.3816e-06
-4.72734e-06
-4.16911e-06
-3.69205e-06
-3.28408e-06
-2.93564e-06
-2.63931e-06
-2.38923e-06
-2.18036e-06
-2.00774e-06
-1.86602e-06
-1.74921e-06
-1.65084e-06
-1.56419e-06
-1.48279e-06
-1.40073e-06
-1.31301e-06
-1.21568e-06
-1.10594e-06
-9.82007e-07
-8.43097e-07
-6.89162e-07
-5.20794e-07
-3.38439e-07
-1.5161e-07
0.000102969
0.000102871
0.00010262
0.000102217
0.000101658
0.000100919
9.99667e-05
9.87539e-05
9.72225e-05
9.52994e-05
9.28948e-05
8.9901e-05
8.61907e-05
8.1617e-05
7.60132e-05
6.91951e-05
6.09674e-05
5.11334e-05
3.95117e-05
2.59603e-05
1.04096e-05
-7.09756e-06
-2.63587e-05
-4.69676e-05
-6.82816e-05
-8.9417e-05
-0.000109289
-0.000126706
-0.000140521
-0.000149815
-0.000154072
-0.000153285
-0.000147962
-0.000139009
-0.000127537
-0.000114662
-0.000101347
-8.83329e-05
-7.61222e-05
-6.50155e-05
-5.51542e-05
-4.65648e-05
-3.91959e-05
-3.29491e-05
-2.77017e-05
-2.33235e-05
-1.9688e-05
-1.66781e-05
-1.41891e-05
-1.21292e-05
-1.04194e-05
-8.99364e-06
-7.79813e-06
-6.79041e-06
-5.93737e-06
-5.21306e-06
-4.5965e-06
-4.07031e-06
-3.61993e-06
-3.23355e-06
-2.9019e-06
-2.61803e-06
-2.37661e-06
-2.17323e-06
-2.0035e-06
-1.8626e-06
-1.74503e-06
-1.64474e-06
-1.55548e-06
-1.4712e-06
-1.38641e-06
-1.2965e-06
-1.19783e-06
-1.08777e-06
-9.64618e-07
-8.27529e-07
-6.76274e-07
-5.11128e-07
-3.32102e-07
-1.48326e-07
0.00010321
0.000103121
0.000102891
0.000102523
0.00010201
0.000101332
0.000100455
9.93344e-05
9.79133e-05
9.61194e-05
9.38633e-05
9.10365e-05
8.75097e-05
8.31309e-05
7.77253e-05
7.10968e-05
6.30322e-05
5.33118e-05
4.17247e-05
2.80949e-05
1.23161e-05
-5.60294e-06
-2.54844e-05
-4.69277e-05
-6.92668e-05
-9.15576e-05
-0.000112614
-0.000131113
-0.000145763
-0.000155519
-0.000159793
-0.000158583
-0.000152479
-0.000142521
-0.000129973
-0.000116077
-0.000101884
-8.81727e-05
-7.54519e-05
-6.40051e-05
-5.39466e-05
-4.52725e-05
-3.79019e-05
-3.17106e-05
-2.65544e-05
-2.2287e-05
-1.87701e-05
-1.58786e-05
-1.35027e-05
-1.15472e-05
-9.93127e-06
-8.58818e-06
-7.46439e-06
-6.51844e-06
-5.71855e-06
-5.04002e-06
-4.46281e-06
-3.97007e-06
-3.54756e-06
-3.18372e-06
-2.86961e-06
-2.59882e-06
-2.36664e-06
-2.16931e-06
-2.00305e-06
-1.86358e-06
-1.74584e-06
-1.64421e-06
-1.55286e-06
-1.46617e-06
-1.37906e-06
-1.28731e-06
-1.18755e-06
-1.07734e-06
-9.55055e-07
-8.19768e-07
-6.71062e-07
-5.08879e-07
-3.32676e-07
-1.50658e-07
0.000103454
0.000103373
0.000103165
0.000102831
0.000102366
0.00010175
0.00010095
9.99235e-05
9.8615e-05
9.69534e-05
9.48499e-05
9.21954e-05
8.88583e-05
8.46823e-05
7.94845e-05
7.30565e-05
6.51675e-05
5.55737e-05
4.40339e-05
3.03358e-05
1.43338e-05
-4.0011e-06
-2.45197e-05
-4.68309e-05
-7.02473e-05
-9.37629e-05
-0.000116085
-0.000135747
-0.000151298
-0.000161554
-0.000165845
-0.000164173
-0.00015722
-0.000146178
-0.000132478
-0.000117501
-0.000102387
-8.79545e-05
-7.47125e-05
-6.2924e-05
-5.26727e-05
-4.39214e-05
-3.6558e-05
-3.04308e-05
-2.53738e-05
-2.12241e-05
-1.78314e-05
-1.5063e-05
-1.28038e-05
-1.09556e-05
-9.43572e-06
-8.17673e-06
-7.12556e-06
-6.2419e-06
-5.49547e-06
-4.86293e-06
-4.32516e-06
-3.86587e-06
-3.47106e-06
-3.12945e-06
-2.83251e-06
-2.5744e-06
-2.35113e-06
-2.15962e-06
-1.99674e-06
-1.85868e-06
-1.74084e-06
-1.63796e-06
-1.5446e-06
-1.45552e-06
-1.36609e-06
-1.27242e-06
-1.17147e-06
-1.06097e-06
-9.39342e-07
-8.05604e-07
-6.59147e-07
-4.99625e-07
-3.26167e-07
-1.46836e-07
0.000103693
0.000103621
0.000103435
0.000103135
0.000102717
0.000102162
0.000101439
0.000100506
9.93099e-05
9.77806e-05
9.58298e-05
9.33485e-05
9.0203e-05
8.62326e-05
8.12471e-05
7.5026e-05
6.73211e-05
5.78644e-05
4.6384e-05
3.26303e-05
1.64163e-05
-2.32742e-06
-2.34841e-05
-4.66759e-05
-7.11972e-05
-9.59804e-05
-0.000119624
-0.000140507
-0.000157009
-0.000167794
-0.0001721
-0.000169935
-0.000162081
-0.000149897
-0.000134992
-0.000118897
-0.000102842
-8.7681e-05
-7.39202e-05
-6.17976e-05
-5.13632e-05
-4.25447e-05
-3.51975e-05
-2.91421e-05
-2.41902e-05
-2.01624e-05
-1.68969e-05
-1.42535e-05
-1.21123e-05
-1.0372e-05
-8.94837e-06
-7.77332e-06
-6.79439e-06
-5.97262e-06
-5.27933e-06
-4.69258e-06
-4.19416e-06
-3.76823e-06
-3.40104e-06
-3.08154e-06
-2.80166e-06
-2.55619e-06
-2.34192e-06
-2.15651e-06
-1.99742e-06
-1.86134e-06
-1.744e-06
-1.64047e-06
-1.54563e-06
-1.45461e-06
-1.36316e-06
-1.26778e-06
-1.16571e-06
-1.05488e-06
-9.33789e-07
-8.01383e-07
-6.56875e-07
-4.99614e-07
-3.28245e-07
-1.50018e-07
0.000103922
0.000103858
0.000103693
0.000103427
0.000103054
0.000102558
0.000101909
0.000101067
9.99803e-05
9.85796e-05
9.6778e-05
9.44662e-05
9.15089e-05
8.77418e-05
8.29675e-05
7.6954e-05
6.94365e-05
6.01237e-05
4.87129e-05
3.49175e-05
1.85083e-05
-6.26589e-07
-2.24057e-05
-4.6468e-05
-7.20935e-05
-9.81556e-05
-0.000123142
-0.000145277
-0.000162759
-0.000174089
-0.00017841
-0.000175733
-0.000166946
-0.000153586
-0.000137454
-0.000120231
-0.000103239
-8.73617e-05
-7.30978e-05
-6.06571e-05
-5.00538e-05
-4.11795e-05
-3.38568e-05
-2.78784e-05
-2.30342e-05
-1.91287e-05
-1.59894e-05
-1.34692e-05
-1.14436e-05
-9.80847e-06
-8.47802e-06
-7.38382e-06
-6.47409e-06
-5.71137e-06
-5.06872e-06
-4.52559e-06
-4.06464e-06
-3.67038e-06
-3.32922e-06
-3.03032e-06
-2.76612e-06
-2.53213e-06
-2.32595e-06
-2.14601e-06
-1.99038e-06
-1.85616e-06
-1.73936e-06
-1.6353e-06
-1.5391e-06
-1.44623e-06
-1.35277e-06
-1.2556e-06
-1.15226e-06
-1.0409e-06
-9.20084e-07
-7.8873e-07
-6.45885e-07
-4.90656e-07
-3.21465e-07
-1.45606e-07
0.000104135
0.000104079
0.000103933
0.000103698
0.000103369
0.000102928
0.000102349
0.000101592
0.000100608
9.93295e-05
9.76693e-05
9.55187e-05
9.27412e-05
8.9169e-05
8.45985e-05
7.87873e-05
7.14547e-05
6.22874e-05
5.09536e-05
3.71303e-05
2.05466e-05
1.04788e-06
-2.13213e-05
-4.62201e-05
-7.29179e-05
-0.000100234
-0.000126548
-0.000149928
-0.00016839
-0.000180269
-0.000184604
-0.000181409
-0.000171684
-0.000157151
-0.000139803
-0.000121476
-0.000103575
-8.70132e-05
-7.22752e-05
-5.95401e-05
-4.87857e-05
-3.98676e-05
-3.25763e-05
-2.66775e-05
-2.19402e-05
-1.81541e-05
-1.51369e-05
-1.27348e-05
-1.08198e-05
-9.28495e-06
-8.04296e-06
-7.02515e-06
-6.18058e-06
-5.47342e-06
-4.8785e-06
-4.37667e-06
-3.95133e-06
-3.58722e-06
-3.27076e-06
-2.99134e-06
-2.74186e-06
-2.51863e-06
-2.3201e-06
-2.14549e-06
-1.99346e-06
-1.86145e-06
-1.74569e-06
-1.64163e-06
-1.54457e-06
-1.45023e-06
-1.35504e-06
-1.2562e-06
-1.15157e-06
-1.03954e-06
-9.18763e-07
-7.88146e-07
-6.46593e-07
-4.92954e-07
-3.25224e-07
-1.49875e-07
0.000104326
0.000104276
0.000104149
0.000103942
0.000103651
0.000103261
0.000102746
0.000102068
0.000101178
0.00010001
9.84796e-05
9.64773e-05
9.38657e-05
9.04742e-05
8.60936e-05
8.04723e-05
7.33155e-05
6.42895e-05
5.30355e-05
3.91964e-05
2.24618e-05
2.63518e-06
-2.02759e-05
-4.59525e-05
-7.36577e-05
-0.000102162
-0.000129744
-0.000154323
-0.000173734
-0.000186144
-0.000190492
-0.000186793
-0.000176158
-0.000160491
-0.000141979
-0.000122605
-0.000103854
-8.66582e-05
-7.14873e-05
-5.84881e-05
-4.76025e-05
-3.86515e-05
-3.13953e-05
-2.55744e-05
-2.09388e-05
-1.72643e-05
-1.436e-05
-1.20669e-05
-1.02533e-05
-8.80994e-06
-7.64823e-06
-6.69926e-06
-5.91305e-06
-5.25547e-06
-4.70314e-06
-4.23824e-06
-3.84479e-06
-3.50759e-06
-3.21302e-06
-2.95059e-06
-2.71369e-06
-2.4994e-06
-2.30708e-06
-2.13675e-06
-1.9876e-06
-1.8574e-06
-1.7425e-06
-1.6384e-06
-1.54052e-06
-1.44474e-06
-1.34778e-06
-1.24716e-06
-1.14105e-06
-1.02808e-06
-9.07028e-07
-7.76805e-07
-6.36213e-07
-4.83929e-07
-3.1784e-07
-1.44624e-07
0.000104489
0.000104446
0.000104334
0.000104152
0.000103896
0.00010355
0.00010309
0.00010248
0.000101672
0.000100603
9.91864e-05
9.73149e-05
9.48502e-05
9.16193e-05
8.74083e-05
8.19577e-05
7.49603e-05
6.60646e-05
5.4888e-05
4.10424e-05
2.41815e-05
4.06995e-06
-1.932e-05
-4.5692e-05
-7.43062e-05
-0.000103891
-0.000132636
-0.00015832
-0.00017861
-0.000191517
-0.000195877
-0.000191707
-0.000180224
-0.000163508
-0.000143928
-0.000123602
-0.000104086
-8.63258e-05
-7.07743e-05
-5.75466e-05
-4.65508e-05
-3.75766e-05
-3.03563e-05
-2.46081e-05
-2.00648e-05
-1.64905e-05
-1.36869e-05
-1.14905e-05
-9.76668e-06
-8.40425e-06
-7.31325e-06
-6.42463e-06
-5.6894e-06
-5.07511e-06
-4.56014e-06
-4.12785e-06
-3.76274e-06
-3.44957e-06
-3.17453e-06
-2.92716e-06
-2.7013e-06
-2.49479e-06
-2.30788e-06
-2.14134e-06
-1.99491e-06
-1.86661e-06
-1.75284e-06
-1.64911e-06
-1.55083e-06
-1.45405e-06
-1.35566e-06
-1.25351e-06
-1.14604e-06
-1.03213e-06
-9.107e-07
-7.80688e-07
-6.40812e-07
-4.89558e-07
-3.24403e-07
-1.51023e-07
0.000104621
0.000104583
0.000104484
0.000104322
0.000104094
0.000103785
0.000103371
0.000102818
0.000102079
0.000101091
9.97696e-05
9.80074e-05
9.56656e-05
9.25696e-05
8.85017e-05
8.31957e-05
7.63344e-05
6.75515e-05
5.64437e-05
4.25973e-05
2.56345e-05
5.28619e-06
-1.85069e-05
-4.54697e-05
-7.48623e-05
-0.000105379
-0.000135133
-0.000161781
-0.000182843
-0.000196186
-0.000200557
-0.000195972
-0.000183744
-0.00016611
-0.0001456
-0.000124453
-0.000104284
-8.60469e-05
-7.01764e-05
-5.67592e-05
-4.5674e-05
-3.66831e-05
-2.94952e-05
-2.38093e-05
-1.93437e-05
-1.58532e-05
-1.31333e-05
-1.1017e-05
-9.36748e-06
-8.07171e-06
-7.03861e-06
-6.19905e-06
-5.50494e-06
-4.92542e-06
-4.44044e-06
-4.03444e-06
-3.69223e-06
-3.39843e-06
-3.13894e-06
-2.90328e-06
-2.68565e-06
-2.4846e-06
-2.30118e-06
-2.1369e-06
-1.99197e-06
-1.86462e-06
-1.7513e-06
-1.64743e-06
-1.54842e-06
-1.45036e-06
-1.35031e-06
-1.24636e-06
-1.13722e-06
-1.02199e-06
-8.99761e-07
-7.695e-07
-6.29888e-07
-4.79321e-07
-3.15313e-07
-1.43998e-07
0.000104718
0.000104684
0.000104594
0.000104448
0.000104242
0.00010396
0.000103582
0.000103072
0.000102386
0.00010146
0.000100212
9.85341e-05
9.62873e-05
9.32956e-05
8.93385e-05
8.41451e-05
7.739e-05
6.86955e-05
5.76426e-05
4.37967e-05
2.67553e-05
6.22211e-06
-1.7888e-05
-4.5318e-05
-7.53293e-05
-0.000106591
-0.000137154
-0.00016458
-0.000186267
-0.000199964
-0.000204344
-0.000199422
-0.000186589
-0.000168212
-0.000146956
-0.000125154
-0.000104467
-8.5854e-05
-6.97335e-05
-5.61687e-05
-4.50143e-05
-3.60109e-05
-2.88484e-05
-2.32108e-05
-1.88051e-05
-1.53788e-05
-1.27229e-05
-1.06681e-05
-9.07549e-06
-7.83084e-06
-6.84209e-06
-6.03996e-06
-5.37715e-06
-4.82414e-06
-4.36222e-06
-3.97666e-06
-3.65249e-06
-3.37407e-06
-3.12698e-06
-2.90064e-06
-2.68953e-06
-2.49275e-06
-2.31206e-06
-2.14959e-06
-2.00596e-06
-1.8796e-06
-1.76692e-06
-1.66329e-06
-1.56404e-06
-1.46525e-06
-1.36412e-06
-1.25891e-06
-1.14856e-06
-1.03238e-06
-9.09597e-07
-7.79236e-07
-6.39939e-07
-4.89958e-07
-3.26364e-07
-1.53908e-07
0.000104777
0.000104745
0.000104662
0.000104526
0.000104334
0.000104071
0.000103716
0.000103235
0.000102584
0.0001017
0.000100501
9.88789e-05
9.66955e-05
9.37736e-05
8.98908e-05
8.47727e-05
7.80886e-05
6.94528e-05
5.84354e-05
4.45875e-05
2.74893e-05
6.82547e-06
-1.75076e-05
-4.52659e-05
-7.57123e-05
-0.000107499
-0.000138634
-0.00016661
-0.00018874
-0.000202689
-0.000207076
-0.000201913
-0.00018865
-0.000169746
-0.000147963
-0.0001257
-0.00010465
-8.57742e-05
-6.94782e-05
-5.58086e-05
-4.46035e-05
-3.55885e-05
-2.84405e-05
-2.28329e-05
-1.84651e-05
-1.50795e-05
-1.24644e-05
-1.04488e-05
-8.89267e-06
-7.68069e-06
-6.72007e-06
-5.94141e-06
-5.29797e-06
-4.76122e-06
-4.31342e-06
-3.94043e-06
-3.62738e-06
-3.35837e-06
-3.11866e-06
-2.89752e-06
-2.68957e-06
-2.49433e-06
-2.31409e-06
-2.15146e-06
-2.0074e-06
-1.88046e-06
-1.76708e-06
-1.66252e-06
-1.56202e-06
-1.46168e-06
-1.35873e-06
-1.2516e-06
-1.13939e-06
-1.02159e-06
-8.97554e-07
-7.66364e-07
-6.26668e-07
-4.7671e-07
-3.13778e-07
-1.43536e-07
0.000104795
0.000104765
0.000104685
0.000104554
0.000104368
0.000104114
0.00010377
0.000103302
0.000102667
0.000101803
0.000100626
9.90306e-05
9.68769e-05
9.39875e-05
9.01391e-05
8.50554e-05
7.84031e-05
6.97924e-05
5.87874e-05
4.49321e-05
2.77976e-05
7.05861e-06
-1.73979e-05
-4.53348e-05
-7.60157e-05
-0.000108083
-0.000139524
-0.000167794
-0.00019016
-0.000204242
-0.00020863
-0.000203338
-0.000189845
-0.000170661
-0.000148598
-0.000126091
-0.000104846
-8.58284e-05
-6.94352e-05
-5.57048e-05
-4.44669e-05
-3.54395e-05
-2.82928e-05
-2.26948e-05
-1.83411e-05
-1.49714e-05
-1.23728e-05
-1.03734e-05
-8.83277e-06
-7.63484e-06
-6.68639e-06
-5.91786e-06
-5.28276e-06
-4.75312e-06
-4.31172e-06
-3.94471e-06
-3.63722e-06
-3.3731e-06
-3.13731e-06
-2.91895e-06
-2.71265e-06
-2.51814e-06
-2.33801e-06
-2.17516e-06
-2.03077e-06
-1.90347e-06
-1.78969e-06
-1.68464e-06
-1.58348e-06
-1.48226e-06
-1.37827e-06
-1.27e-06
-1.15671e-06
-1.038e-06
-9.13314e-07
-7.81802e-07
-6.42101e-07
-4.92343e-07
-3.29322e-07
-1.56953e-07
0.000104773
0.000104742
0.000104662
0.00010453
0.000104343
0.000104087
0.000103741
0.000103271
0.000102633
0.000101765
0.000100584
9.89839e-05
9.68247e-05
9.39291e-05
9.00736e-05
8.49818e-05
7.83201e-05
6.96985e-05
5.8681e-05
4.48112e-05
2.76603e-05
6.90249e-06
-1.75751e-05
-4.5535e-05
-7.62404e-05
-0.000108333
-0.000139797
-0.000168086
-0.000190466
-0.000204554
-0.00020894
-0.000203638
-0.000190129
-0.000170929
-0.000148847
-0.000126323
-0.000105061
-8.6026e-05
-6.96155e-05
-5.58684e-05
-4.46147e-05
-3.55726e-05
-2.84123e-05
-2.28017e-05
-1.84363e-05
-1.50559e-05
-1.24476e-05
-1.04398e-05
-8.89169e-06
-7.68734e-06
-6.73323e-06
-5.95966e-06
-5.32009e-06
-4.78654e-06
-4.34184e-06
-3.97214e-06
-3.66244e-06
-3.39642e-06
-3.15883e-06
-2.93858e-06
-2.73021e-06
-2.5334e-06
-2.35081e-06
-2.18542e-06
-2.03849e-06
-1.90871e-06
-1.79251e-06
-1.68508e-06
-1.58154e-06
-1.47792e-06
-1.37152e-06
-1.2609e-06
-1.14538e-06
-1.02465e-06
-8.98246e-07
-7.65354e-07
-6.24647e-07
-4.74326e-07
-3.1161e-07
-1.41963e-07
0.00010471
0.000104678
0.000104593
0.000104454
0.000104258
0.000103991
0.000103629
0.000103141
0.000102481
0.000101586
0.000100375
9.87388e-05
9.65393e-05
9.35988e-05
8.96947e-05
8.45522e-05
7.784e-05
6.91718e-05
5.8117e-05
4.42261e-05
2.70786e-05
6.35879e-06
-1.80369e-05
-4.58638e-05
-7.63829e-05
-0.000108243
-0.000139447
-0.000167482
-0.000189653
-0.00020362
-0.000207999
-0.000202806
-0.000189498
-0.000170544
-0.000148708
-0.000126394
-0.000105292
-8.63644e-05
-7.00171e-05
-5.6298e-05
-4.5046e-05
-3.59875e-05
-2.87993e-05
-2.31546e-05
-1.87526e-05
-1.53356e-05
-1.26926e-05
-1.06525e-05
-9.07537e-06
-7.84546e-06
-6.8694e-06
-6.07733e-06
-5.4223e-06
-4.87582e-06
-4.42024e-06
-4.04135e-06
-3.72398e-06
-3.45167e-06
-3.20905e-06
-2.98481e-06
-2.77324e-06
-2.57377e-06
-2.38882e-06
-2.22124e-06
-2.07221e-06
-1.94043e-06
-1.82233e-06
-1.71312e-06
-1.60793e-06
-1.50279e-06
-1.39498e-06
-1.28306e-06
-1.16641e-06
-1.04473e-06
-9.17589e-07
-7.84215e-07
-6.43282e-07
-4.92907e-07
-3.2979e-07
-1.57454e-07
0.000104607
0.000104572
0.000104479
0.000104329
0.000104116
0.000103826
0.000103437
0.000102916
0.000102214
0.000101271
0.000100003
9.83016e-05
9.60279e-05
9.30054e-05
8.90131e-05
8.37791e-05
7.69775e-05
6.82294e-05
5.71147e-05
4.31978e-05
2.60751e-05
5.4499e-06
-1.8763e-05
-4.63053e-05
-7.64351e-05
-0.000107816
-0.000138492
-0.000166012
-0.000187765
-0.000201491
-0.00020586
-0.00020089
-0.000187986
-0.000169526
-0.000148185
-0.000126298
-0.000105526
-8.68282e-05
-7.06234e-05
-5.69769e-05
-4.57451e-05
-3.66697e-05
-2.94406e-05
-2.37414e-05
-1.92788e-05
-1.58003e-05
-1.30977e-05
-1.10017e-05
-9.37366e-06
-8.09853e-06
-7.08338e-06
-6.25819e-06
-5.5753e-06
-5.00522e-06
-4.52934e-06
-4.13281e-06
-3.80016e-06
-3.51486e-06
-3.26149e-06
-3.02853e-06
-2.8099e-06
-2.60455e-06
-2.41441e-06
-2.24199e-06
-2.08829e-06
-1.95196e-06
-1.82948e-06
-1.71614e-06
-1.60713e-06
-1.49849e-06
-1.38751e-06
-1.27273e-06
-1.15349e-06
-1.02949e-06
-9.00304e-07
-7.65172e-07
-6.22814e-07
-4.71469e-07
-3.08409e-07
-1.39188e-07
0.000104467
0.000104427
0.000104324
0.000104156
0.000103919
0.000103598
0.00010317
0.0001026
0.000101841
0.000100828
9.94787e-05
9.76838e-05
9.53047e-05
9.21658e-05
8.80488e-05
8.26866e-05
7.57607e-05
6.69034e-05
5.57103e-05
4.17659e-05
2.46913e-05
4.21667e-06
-1.9717e-05
-4.68327e-05
-7.63862e-05
-0.000107065
-0.000136969
-0.000163745
-0.000184895
-0.000198277
-0.000202634
-0.000197987
-0.000185664
-0.000167919
-0.000147294
-0.000126031
-0.000105746
-8.73922e-05
-7.14061e-05
-5.78769e-05
-4.66854e-05
-3.75953e-05
-3.03157e-05
-2.45449e-05
-2.00011e-05
-1.6439e-05
-1.36548e-05
-1.14822e-05
-9.78405e-06
-8.44672e-06
-7.37792e-06
-6.50751e-06
-5.78687e-06
-5.18509e-06
-4.68218e-06
-4.26238e-06
-3.9098e-06
-3.60788e-06
-3.34114e-06
-3.09784e-06
-2.87137e-06
-2.65999e-06
-2.46494e-06
-2.28817e-06
-2.13038e-06
-1.99013e-06
-1.86398e-06
-1.74733e-06
-1.63546e-06
-1.52447e-06
-1.41162e-06
-1.29539e-06
-1.17502e-06
-1.05015e-06
-9.20296e-07
-7.847e-07
-6.42077e-07
-4.90601e-07
-3.27046e-07
-1.5501e-07
0.000104292
0.000104247
0.00010413
0.00010394
0.000103672
0.000103312
0.000102834
0.000102202
0.000101368
0.000100268
9.88153e-05
9.69022e-05
9.43898e-05
9.11042e-05
8.68307e-05
8.13086e-05
7.42291e-05
6.52393e-05
5.39546e-05
3.99855e-05
2.29841e-05
2.71431e-06
-2.08509e-05
-4.74126e-05
-7.62255e-05
-0.000106009
-0.000134939
-0.000160777
-0.000181176
-0.00019413
-0.000198474
-0.00019423
-0.000182634
-0.000165783
-0.000146061
-0.00012559
-0.000105929
-8.80239e-05
-7.23278e-05
-5.89595e-05
-4.78299e-05
-3.87306e-05
-3.13942e-05
-2.55386e-05
-2.08962e-05
-1.72312e-05
-1.4346e-05
-1.20778e-05
-1.02918e-05
-8.87617e-06
-7.73949e-06
-6.81151e-06
-6.04251e-06
-5.39986e-06
-4.86188e-06
-4.41165e-06
-4.03278e-06
-3.70861e-06
-3.42363e-06
-3.16581e-06
-2.92792e-06
-2.70736e-06
-2.50452e-06
-2.32067e-06
-2.15611e-06
-2.00932e-06
-1.87695e-06
-1.75456e-06
-1.6376e-06
-1.52222e-06
-1.40565e-06
-1.28628e-06
-1.16324e-06
-1.03604e-06
-9.04117e-07
-7.66693e-07
-6.22517e-07
-4.69898e-07
-3.06209e-07
-1.37092e-07
0.000104088
0.000104036
0.000103902
0.000103685
0.000103381
0.000102974
0.000102436
0.000101731
0.00010081
9.96047e-05
9.80306e-05
9.59779e-05
9.33086e-05
8.9851e-05
8.53949e-05
7.96873e-05
7.24317e-05
6.32926e-05
5.19093e-05
3.79227e-05
2.10211e-05
1.00722e-06
-2.21102e-05
-4.8009e-05
-7.59455e-05
-0.000104679
-0.000132474
-0.00015723
-0.000176764
-0.000189231
-0.000193562
-0.000189781
-0.000179018
-0.000163198
-0.000144521
-0.000124978
-0.000106056
-8.86882e-05
-7.33463e-05
-6.01805e-05
-4.91359e-05
-4.00358e-05
-3.26409e-05
-2.66918e-05
-2.19378e-05
-1.81552e-05
-1.51535e-05
-1.27745e-05
-1.08867e-05
-9.37997e-06
-8.16423e-06
-7.16916e-06
-6.34385e-06
-5.65379e-06
-5.07542e-06
-4.59048e-06
-4.18194e-06
-3.83295e-06
-3.52791e-06
-3.25443e-06
-3.00454e-06
-2.77469e-06
-2.56427e-06
-2.37375e-06
-2.203e-06
-2.05036e-06
-1.91257e-06
-1.78539e-06
-1.66444e-06
-1.54593e-06
-1.42705e-06
-1.30606e-06
-1.1819e-06
-1.05394e-06
-9.21501e-07
-7.8374e-07
-6.39396e-07
-4.86735e-07
-3.2271e-07
-1.51195e-07
0.000103857
0.000103798
0.000103645
0.000103398
0.000103053
0.000102592
0.000101987
0.0001012
0.000100179
9.88562e-05
9.71451e-05
9.49356e-05
9.20907e-05
8.84415e-05
8.3783e-05
7.78714e-05
7.04242e-05
6.1126e-05
4.96431e-05
3.56503e-05
1.88755e-05
-8.36355e-07
-2.34391e-05
-4.85878e-05
-7.55439e-05
-0.000103114
-0.000129663
-0.000153238
-0.000171836
-0.000183777
-0.000188096
-0.000184815
-0.000174953
-0.000160251
-0.00014272
-0.000124202
-0.000106108
-8.93506e-05
-7.4418e-05
-6.14928e-05
-5.05563e-05
-4.14667e-05
-3.40155e-05
-2.79686e-05
-2.30948e-05
-1.91837e-05
-1.60538e-05
-1.35523e-05
-1.1551e-05
-9.94257e-06
-8.63803e-06
-7.56717e-06
-6.67789e-06
-5.93378e-06
-5.30928e-06
-4.78464e-06
-4.34205e-06
-3.96438e-06
-3.63582e-06
-3.34355e-06
-3.07884e-06
-2.83707e-06
-2.6166e-06
-2.41708e-06
-2.23787e-06
-2.07717e-06
-1.93183e-06
-1.79782e-06
-1.67092e-06
-1.54744e-06
-1.42453e-06
-1.30028e-06
-1.17347e-06
-1.04327e-06
-9.08892e-07
-7.69423e-07
-6.23627e-07
-4.69895e-07
-3.05698e-07
-1.36583e-07
0.000103606
0.000103539
0.000103365
0.000103086
0.000102696
0.000102176
0.000101498
0.000100621
9.94918e-05
9.80413e-05
9.61817e-05
9.38029e-05
9.0769e-05
8.69143e-05
8.20402e-05
7.59131e-05
6.82662e-05
5.8806e-05
4.72279e-05
3.32431e-05
1.66213e-05
-2.74928e-06
-2.47851e-05
-4.91202e-05
-7.50257e-05
-0.000101362
-0.000126599
-0.000148942
-0.000166569
-0.000177966
-0.000182273
-0.000179508
-0.000170578
-0.00015704
-0.00014071
-0.000123279
-0.000106074
-8.99808e-05
-7.55018e-05
-6.28502e-05
-5.20442e-05
-4.29783e-05
-3.54766e-05
-2.93321e-05
-2.43347e-05
-2.02891e-05
-1.70235e-05
-1.43916e-05
-1.22693e-05
-1.05518e-05
-9.15173e-06
-7.99907e-06
-7.04066e-06
-6.23822e-06
-5.56419e-06
-4.99724e-06
-4.51865e-06
-4.11085e-06
-3.75772e-06
-3.44594e-06
-3.16597e-06
-2.91215e-06
-2.68176e-06
-2.47357e-06
-2.28645e-06
-2.1184e-06
-1.96635e-06
-1.82645e-06
-1.69467e-06
-1.56735e-06
-1.4416e-06
-1.31537e-06
-1.18721e-06
-1.05613e-06
-9.2116e-07
-7.81341e-07
-6.35413e-07
-4.81745e-07
-3.17519e-07
-1.46948e-07
0.000103341
0.000103265
0.00010307
0.000102756
0.000102318
0.000101737
0.000100981
0.000100009
9.87656e-05
9.71806e-05
9.51651e-05
9.26091e-05
8.93781e-05
8.53103e-05
8.02139e-05
7.38668e-05
6.60187e-05
5.63996e-05
4.47353e-05
3.07745e-05
1.43292e-05
-4.66944e-06
-2.61021e-05
-4.9585e-05
-7.4403e-05
-9.94747e-05
-0.00012338
-0.00014448
-0.000161133
-0.000171989
-0.000176284
-0.000174033
-0.000166032
-0.000153662
-0.000138549
-0.000122232
-0.000105949
-9.05548e-05
-7.65611e-05
-6.42095e-05
-5.35542e-05
-4.45259e-05
-3.69821e-05
-3.0744e-05
-2.56235e-05
-2.14413e-05
-1.80366e-05
-1.52701e-05
-1.30222e-05
-1.11911e-05
-9.69103e-06
-8.45225e-06
-7.42075e-06
-6.55649e-06
-5.82997e-06
-5.21823e-06
-4.70149e-06
-4.26159e-06
-3.88202e-06
-3.54892e-06
-3.25191e-06
-2.98433e-06
-2.74241e-06
-2.52407e-06
-2.32763e-06
-2.1509e-06