/*--------------------------------*- C++ -*----------------------------------*\
| =========                 |                                                 |
| \\      /  F ield         | OpenFOAM: The Open Source CFD Toolbox           |
|  \\    /   O peration     | Version:  2512                                  |
|   \\  /    A nd           | Website:  www.openfoam.com                      |
|    \\/     M anipulation  |                                                 |
\*---------------------------------------------------------------------------*/
FoamFile
{
    version     2.0;
    format      ascii;
    arch        "LSB;label=32;scalar=64";
    class       volScalarField;
    location    "167";
    object      k;
}
// * * * * * * * * * * * * * * * * * * * * * * * * * * * * * * * * * * * * * //

dimensions      [0 2 -2 0 0 0 0];

internalField   nonuniform List<scalar> 
335663
(
0.00355999
0.00338664
0.0032285
0.00308371
0.00295068
0.00282806
0.00271471
0.00260964
0.002512
0.00242103
0.0023361
0.00225663
0.00218212
0.00211214
0.00204629
0.00198422
0.00192563
0.00187024
0.0018178
0.00176807
0.00172087
0.00167601
0.00163332
0.00159265
0.00155386
0.00151684
0.00148145
0.0014476
0.0014152
0.00138415
0.00135437
0.00132578
0.00129832
0.00127192
0.00124653
0.00122208
0.00119853
0.00117582
0.00115392
0.00113278
0.00111237
0.00109265
0.00107358
0.00105514
0.00103728
0.00102
0.00100326
0.00098703
0.000971295
0.000956032
0.000941219
0.000926838
0.00091287
0.000899298
0.000886106
0.000873278
0.0008608
0.000848658
0.000836838
0.000825328
0.000814117
0.000803193
0.000792545
0.000782163
0.000772038
0.000762161
0.000752521
0.000743112
0.000733925
0.000724953
0.000716187
0.000707622
0.00069925
0.000691066
0.000683062
0.000675234
0.000667575
0.000660081
0.000652746
0.00064559
0.00355999
0.00338664
0.0032285
0.00308371
0.00295068
0.00282806
0.00271471
0.00260964
0.002512
0.00242103
0.0023361
0.00225663
0.00218212
0.00211214
0.00204629
0.00198422
0.00192563
0.00187024
0.0018178
0.00176807
0.00172087
0.00167601
0.00163332
0.00159265
0.00155386
0.00151684
0.00148145
0.0014476
0.0014152
0.00138415
0.00135437
0.00132578
0.00129832
0.00127192
0.00124653
0.00122208
0.00119853
0.00117582
0.00115392
0.00113278
0.00111237
0.00109265
0.00107358
0.00105514
0.00103729
0.00102
0.00100326
0.00098703
0.000971295
0.000956032
0.000941219
0.000926838
0.00091287
0.000899299
0.000886106
0.000873278
0.0008608
0.000848658
0.000836838
0.000825328
0.000814117
0.000803193
0.000792545
0.000782163
0.000772038
0.000762161
0.000752521
0.000743112
0.000733925
0.000724953
0.000716187
0.000707622
0.00069925
0.000691066
0.000683062
0.000675234
0.000667575
0.000660081
0.000652746
0.00064559
0.00355999
0.00338664
0.0032285
0.00308371
0.00295068
0.00282806
0.00271471
0.00260964
0.002512
0.00242103
0.0023361
0.00225663
0.00218212
0.00211214
0.00204629
0.00198422
0.00192563
0.00187024
0.00181779
0.00176807
0.00172087
0.00167601
0.00163332
0.00159265
0.00155386
0.00151683
0.00148145
0.0014476
0.0014152
0.00138415
0.00135437
0.00132578
0.00129832
0.00127192
0.00124653
0.00122208
0.00119853
0.00117582
0.00115392
0.00113279
0.00111237
0.00109265
0.00107358
0.00105514
0.00103729
0.00102
0.00100326
0.00098703
0.000971296
0.000956032
0.00094122
0.000926839
0.000912871
0.000899299
0.000886107
0.000873279
0.0008608
0.000848658
0.000836838
0.000825328
0.000814117
0.000803193
0.000792545
0.000782164
0.000772039
0.000762161
0.000752522
0.000743112
0.000733925
0.000724953
0.000716187
0.000707622
0.000699251
0.000691066
0.000683063
0.000675234
0.000667576
0.000660081
0.000652746
0.00064559
0.00355999
0.00338664
0.0032285
0.00308371
0.00295068
0.00282806
0.00271471
0.00260964
0.002512
0.00242103
0.0023361
0.00225662
0.00218212
0.00211214
0.00204629
0.00198422
0.00192563
0.00187024
0.00181779
0.00176807
0.00172087
0.00167601
0.00163332
0.00159265
0.00155386
0.00151683
0.00148145
0.0014476
0.0014152
0.00138415
0.00135437
0.00132578
0.00129832
0.00127192
0.00124653
0.00122208
0.00119853
0.00117582
0.00115392
0.00113279
0.00111237
0.00109265
0.00107358
0.00105514
0.00103729
0.00102
0.00100326
0.000987031
0.000971296
0.000956033
0.00094122
0.000926839
0.000912871
0.000899299
0.000886107
0.000873279
0.000860801
0.000848658
0.000836838
0.000825329
0.000814118
0.000803193
0.000792546
0.000782164
0.000772039
0.000762161
0.000752522
0.000743113
0.000733926
0.000724953
0.000716188
0.000707622
0.000699251
0.000691066
0.000683063
0.000675234
0.000667576
0.000660081
0.000652746
0.00064559
0.00355999
0.00338664
0.0032285
0.00308371
0.00295068
0.00282806
0.00271471
0.00260964
0.002512
0.00242103
0.00233609
0.00225662
0.00218212
0.00211214
0.00204629
0.00198422
0.00192563
0.00187024
0.00181779
0.00176807
0.00172087
0.001676
0.00163331
0.00159264
0.00155386
0.00151683
0.00148145
0.0014476
0.0014152
0.00138415
0.00135437
0.00132578
0.00129832
0.00127193
0.00124653
0.00122208
0.00119853
0.00117582
0.00115392
0.00113279
0.00111237
0.00109265
0.00107358
0.00105514
0.00103729
0.00102
0.00100326
0.000987031
0.000971297
0.000956033
0.000941221
0.000926839
0.000912872
0.0008993
0.000886107
0.000873279
0.000860801
0.000848659
0.000836839
0.000825329
0.000814118
0.000803194
0.000792546
0.000782164
0.000772039
0.000762162
0.000752522
0.000743113
0.000733926
0.000724953
0.000716188
0.000707623
0.000699251
0.000691067
0.000683063
0.000675235
0.000667576
0.000660082
0.000652747
0.00064559
0.00355999
0.00338664
0.0032285
0.00308371
0.00295068
0.00282806
0.00271471
0.00260964
0.002512
0.00242103
0.00233609
0.00225662
0.00218212
0.00211213
0.00204628
0.00198422
0.00192563
0.00187023
0.00181779
0.00176807
0.00172087
0.001676
0.00163331
0.00159264
0.00155386
0.00151683
0.00148145
0.0014476
0.0014152
0.00138415
0.00135437
0.00132578
0.00129832
0.00127193
0.00124653
0.00122208
0.00119853
0.00117583
0.00115393
0.00113279
0.00111238
0.00109265
0.00107358
0.00105514
0.00103729
0.00102
0.00100326
0.000987032
0.000971297
0.000956034
0.000941221
0.00092684
0.000912872
0.0008993
0.000886108
0.00087328
0.000860802
0.000848659
0.000836839
0.00082533
0.000814118
0.000803194
0.000792546
0.000782165
0.00077204
0.000762162
0.000752523
0.000743114
0.000733927
0.000724954
0.000716189
0.000707623
0.000699252
0.000691067
0.000683064
0.000675235
0.000667577
0.000660082
0.000652747
0.000645591
0.00355999
0.00338664
0.0032285
0.00308371
0.00295068
0.00282806
0.00271471
0.00260964
0.002512
0.00242103
0.00233609
0.00225662
0.00218212
0.00211213
0.00204628
0.00198422
0.00192563
0.00187023
0.00181779
0.00176806
0.00172086
0.001676
0.00163331
0.00159264
0.00155386
0.00151683
0.00148145
0.0014476
0.0014152
0.00138415
0.00135437
0.00132579
0.00129833
0.00127193
0.00124653
0.00122209
0.00119853
0.00117583
0.00115393
0.00113279
0.00111238
0.00109265
0.00107358
0.00105514
0.00103729
0.00102
0.00100326
0.000987033
0.000971298
0.000956035
0.000941222
0.000926841
0.000912873
0.000899301
0.000886109
0.000873281
0.000860802
0.00084866
0.00083684
0.00082533
0.000814119
0.000803195
0.000792547
0.000782165
0.00077204
0.000762163
0.000752523
0.000743114
0.000733927
0.000724954
0.000716189
0.000707624
0.000699252
0.000691068
0.000683064
0.000675236
0.000667577
0.000660083
0.000652747
0.000645591
0.00355999
0.00338664
0.0032285
0.00308371
0.00295068
0.00282806
0.00271471
0.00260964
0.002512
0.00242103
0.00233609
0.00225662
0.00218211
0.00211213
0.00204628
0.00198422
0.00192562
0.00187023
0.00181778
0.00176806
0.00172086
0.001676
0.00163331
0.00159264
0.00155385
0.00151683
0.00148144
0.0014476
0.0014152
0.00138415
0.00135437
0.00132579
0.00129833
0.00127193
0.00124654
0.00122209
0.00119853
0.00117583
0.00115393
0.00113279
0.00111238
0.00109266
0.00107359
0.00105514
0.00103729
0.00102001
0.00100326
0.000987034
0.000971299
0.000956036
0.000941223
0.000926842
0.000912874
0.000899302
0.000886109
0.000873281
0.000860803
0.000848661
0.000836841
0.000825331
0.00081412
0.000803195
0.000792548
0.000782166
0.000772041
0.000762163
0.000752524
0.000743115
0.000733928
0.000724955
0.00071619
0.000707624
0.000699253
0.000691068
0.000683065
0.000675236
0.000667578
0.000660083
0.000652748
0.000645592
0.00355999
0.00338664
0.0032285
0.00308371
0.00295068
0.00282806
0.00271471
0.00260964
0.00251199
0.00242103
0.00233609
0.00225662
0.00218211
0.00211213
0.00204628
0.00198421
0.00192562
0.00187023
0.00181778
0.00176806
0.00172086
0.00167599
0.0016333
0.00159263
0.00155385
0.00151682
0.00148144
0.0014476
0.0014152
0.00138415
0.00135437
0.00132579
0.00129833
0.00127193
0.00124654
0.00122209
0.00119854
0.00117583
0.00115393
0.00113279
0.00111238
0.00109266
0.00107359
0.00105514
0.00103729
0.00102001
0.00100326
0.000987035
0.0009713
0.000956037
0.000941224
0.000926843
0.000912875
0.000899303
0.00088611
0.000873282
0.000860804
0.000848661
0.000836841
0.000825332
0.00081412
0.000803196
0.000792548
0.000782167
0.000772042
0.000762164
0.000752525
0.000743115
0.000733928
0.000724956
0.00071619
0.000707625
0.000699253
0.000691069
0.000683065
0.000675237
0.000667578
0.000660084
0.000652749
0.000645592
0.00355999
0.00338664
0.0032285
0.00308371
0.00295068
0.00282806
0.00271471
0.00260964
0.00251199
0.00242103
0.00233609
0.00225662
0.00218211
0.00211213
0.00204628
0.00198421
0.00192562
0.00187022
0.00181778
0.00176805
0.00172085
0.00167599
0.0016333
0.00159263
0.00155385
0.00151682
0.00148144
0.0014476
0.0014152
0.00138415
0.00135437
0.00132579
0.00129833
0.00127194
0.00124654
0.00122209
0.00119854
0.00117583
0.00115393
0.0011328
0.00111238
0.00109266
0.00107359
0.00105514
0.00103729
0.00102001
0.00100326
0.000987036
0.000971301
0.000956038
0.000941225
0.000926844
0.000912876
0.000899304
0.000886111
0.000873283
0.000860805
0.000848662
0.000836842
0.000825333
0.000814121
0.000803197
0.000792549
0.000782168
0.000772042
0.000762165
0.000752525
0.000743116
0.000733929
0.000724956
0.000716191
0.000707626
0.000699254
0.000691069
0.000683066
0.000675238
0.000667579
0.000660084
0.000652749
0.000645593
0.00355999
0.00338664
0.0032285
0.00308371
0.00295068
0.00282806
0.00271471
0.00260964
0.00251199
0.00242103
0.00233609
0.00225662
0.00218211
0.00211213
0.00204627
0.00198421
0.00192562
0.00187022
0.00181777
0.00176805
0.00172085
0.00167599
0.0016333
0.00159263
0.00155384
0.00151682
0.00148144
0.0014476
0.0014152
0.00138415
0.00135437
0.00132579
0.00129833
0.00127194
0.00124654
0.00122209
0.00119854
0.00117584
0.00115394
0.0011328
0.00111239
0.00109266
0.00107359
0.00105515
0.00103729
0.00102001
0.00100327
0.000987038
0.000971303
0.000956039
0.000941226
0.000926845
0.000912877
0.000899304
0.000886112
0.000873284
0.000860806
0.000848663
0.000836843
0.000825333
0.000814122
0.000803198
0.00079255
0.000782168
0.000772043
0.000762165
0.000752526
0.000743117
0.00073393
0.000724957
0.000716192
0.000707626
0.000699255
0.00069107
0.000683067
0.000675238
0.00066758
0.000660085
0.00065275
0.000645594
0.00355999
0.00338664
0.0032285
0.00308371
0.00295068
0.00282806
0.00271471
0.00260964
0.00251199
0.00242102
0.00233609
0.00225662
0.00218211
0.00211212
0.00204627
0.00198421
0.00192561
0.00187022
0.00181777
0.00176805
0.00172084
0.00167598
0.00163329
0.00159262
0.00155384
0.00151682
0.00148144
0.0014476
0.0014152
0.00138415
0.00135437
0.00132579
0.00129834
0.00127194
0.00124655
0.0012221
0.00119854
0.00117584
0.00115394
0.0011328
0.00111239
0.00109266
0.00107359
0.00105515
0.0010373
0.00102001
0.00100327
0.000987039
0.000971304
0.00095604
0.000941227
0.000926846
0.000912878
0.000899305
0.000886113
0.000873285
0.000860807
0.000848664
0.000836844
0.000825334
0.000814123
0.000803199
0.000792551
0.000782169
0.000772044
0.000762166
0.000752527
0.000743118
0.000733931
0.000724958
0.000716192
0.000707627
0.000699255
0.000691071
0.000683067
0.000675239
0.00066758
0.000660086
0.00065275
0.000645594
0.00355999
0.00338664
0.0032285
0.00308371
0.00295068
0.00282806
0.00271471
0.00260964
0.00251199
0.00242102
0.00233609
0.00225661
0.00218211
0.00211212
0.00204627
0.0019842
0.00192561
0.00187021
0.00181777
0.00176804
0.00172084
0.00167598
0.00163329
0.00159262
0.00155384
0.00151681
0.00148144
0.0014476
0.0014152
0.00138415
0.00135438
0.00132579
0.00129834
0.00127194
0.00124655
0.0012221
0.00119855
0.00117584
0.00115394
0.0011328
0.00111239
0.00109266
0.00107359
0.00105515
0.0010373
0.00102001
0.00100327
0.00098704
0.000971305
0.000956041
0.000941228
0.000926847
0.000912879
0.000899306
0.000886114
0.000873286
0.000860807
0.000848665
0.000836845
0.000825335
0.000814124
0.000803199
0.000792552
0.00078217
0.000772045
0.000762167
0.000752528
0.000743118
0.000733931
0.000724959
0.000716193
0.000707628
0.000699256
0.000691071
0.000683068
0.00067524
0.000667581
0.000660086
0.000652751
0.000645595
0.00355999
0.00338664
0.0032285
0.00308371
0.00295068
0.00282806
0.00271471
0.00260964
0.00251199
0.00242102
0.00233609
0.00225661
0.00218211
0.00211212
0.00204627
0.0019842
0.00192561
0.00187021
0.00181776
0.00176804
0.00172084
0.00167597
0.00163328
0.00159262
0.00155383
0.00151681
0.00148143
0.00144759
0.0014152
0.00138415
0.00135438
0.0013258
0.00129834
0.00127195
0.00124655
0.0012221
0.00119855
0.00117584
0.00115394
0.00113281
0.00111239
0.00109267
0.0010736
0.00105515
0.0010373
0.00102001
0.00100327
0.000987041
0.000971306
0.000956042
0.000941229
0.000926848
0.000912879
0.000899307
0.000886115
0.000873287
0.000860808
0.000848666
0.000836846
0.000825336
0.000814124
0.0008032
0.000792552
0.000782171
0.000772045
0.000762168
0.000752528
0.000743119
0.000733932
0.000724959
0.000716194
0.000707628
0.000699257
0.000691072
0.000683069
0.00067524
0.000667581
0.000660087
0.000652752
0.000645595
0.00355999
0.00338664
0.0032285
0.00308371
0.00295068
0.00282806
0.00271471
0.00260964
0.00251199
0.00242102
0.00233609
0.00225661
0.0021821
0.00211212
0.00204627
0.0019842
0.00192561
0.00187021
0.00181776
0.00176804
0.00172083
0.00167597
0.00163328
0.00159261
0.00155383
0.00151681
0.00148143
0.00144759
0.0014152
0.00138415
0.00135438
0.0013258
0.00129834
0.00127195
0.00124655
0.00122211
0.00119855
0.00117585
0.00115395
0.00113281
0.00111239
0.00109267
0.0010736
0.00105515
0.0010373
0.00102002
0.00100327
0.000987042
0.000971307
0.000956043
0.00094123
0.000926849
0.00091288
0.000899308
0.000886116
0.000873288
0.000860809
0.000848666
0.000836846
0.000825337
0.000814125
0.000803201
0.000792553
0.000782171
0.000772046
0.000762168
0.000752529
0.00074312
0.000733933
0.00072496
0.000716194
0.000707629
0.000699257
0.000691073
0.000683069
0.000675241
0.000667582
0.000660088
0.000652752
0.000645596
0.00355999
0.00338664
0.0032285
0.00308371
0.00295068
0.00282806
0.00271471
0.00260964
0.00251199
0.00242102
0.00233608
0.00225661
0.0021821
0.00211212
0.00204626
0.0019842
0.0019256
0.00187021
0.00181776
0.00176803
0.00172083
0.00167597
0.00163328
0.00159261
0.00155383
0.00151681
0.00148143
0.00144759
0.0014152
0.00138415
0.00135438
0.0013258
0.00129834
0.00127195
0.00124656
0.00122211
0.00119855
0.00117585
0.00115395
0.00113281
0.00111239
0.00109267
0.0010736
0.00105515
0.0010373
0.00102002
0.00100327
0.000987043
0.000971308
0.000956044
0.000941231
0.000926849
0.000912881
0.000899309
0.000886116
0.000873288
0.00086081
0.000848667
0.000836847
0.000825337
0.000814126
0.000803202
0.000792554
0.000782172
0.000772047
0.000762169
0.00075253
0.00074312
0.000733933
0.000724961
0.000716195
0.00070763
0.000699258
0.000691073
0.00068307
0.000675241
0.000667583
0.000660088
0.000652753
0.000645597
0.00355999
0.00338664
0.0032285
0.00308371
0.00295068
0.00282806
0.00271471
0.00260964
0.00251199
0.00242102
0.00233608
0.00225661
0.0021821
0.00211212
0.00204626
0.0019842
0.0019256
0.0018702
0.00181776
0.00176803
0.00172083
0.00167596
0.00163327
0.00159261
0.00155383
0.00151681
0.00148143
0.00144759
0.0014152
0.00138415
0.00135438
0.0013258
0.00129835
0.00127195
0.00124656
0.00122211
0.00119856
0.00117585
0.00115395
0.00113281
0.0011124
0.00109267
0.0010736
0.00105515
0.0010373
0.00102002
0.00100327
0.000987044
0.000971309
0.000956045
0.000941232
0.00092685
0.000912882
0.00089931
0.000886117
0.000873289
0.00086081
0.000848668
0.000836848
0.000825338
0.000814126
0.000803202
0.000792554
0.000782172
0.000772047
0.000762169
0.00075253
0.000743121
0.000733934
0.000724961
0.000716196
0.00070763
0.000699258
0.000691074
0.00068307
0.000675242
0.000667583
0.000660089
0.000652753
0.000645597
0.00355999
0.00338664
0.0032285
0.00308371
0.00295068
0.00282806
0.00271471
0.00260964
0.00251199
0.00242102
0.00233608
0.00225661
0.0021821
0.00211212
0.00204626
0.00198419
0.0019256
0.0018702
0.00181775
0.00176803
0.00172083
0.00167596
0.00163327
0.00159261
0.00155383
0.0015168
0.00148143
0.00144759
0.0014152
0.00138415
0.00135438
0.0013258
0.00129835
0.00127195
0.00124656
0.00122211
0.00119856
0.00117585
0.00115395
0.00113281
0.0011124
0.00109267
0.0010736
0.00105516
0.0010373
0.00102002
0.00100327
0.000987045
0.000971309
0.000956045
0.000941232
0.000926851
0.000912882
0.00089931
0.000886118
0.000873289
0.000860811
0.000848668
0.000836848
0.000825338
0.000814127
0.000803203
0.000792555
0.000782173
0.000772048
0.00076217
0.00075253
0.000743121
0.000733934
0.000724961
0.000716196
0.000707631
0.000699259
0.000691074
0.000683071
0.000675242
0.000667583
0.000660089
0.000652754
0.000645597
0.00355999
0.00338664
0.0032285
0.00308371
0.00295068
0.00282806
0.00271471
0.00260964
0.00251199
0.00242102
0.00233608
0.00225661
0.0021821
0.00211212
0.00204626
0.00198419
0.0019256
0.0018702
0.00181775
0.00176803
0.00172082
0.00167596
0.00163327
0.0015926
0.00155382
0.0015168
0.00148143
0.00144759
0.0014152
0.00138415
0.00135438
0.0013258
0.00129835
0.00127195
0.00124656
0.00122211
0.00119856
0.00117585
0.00115395
0.00113281
0.0011124
0.00109267
0.0010736
0.00105516
0.0010373
0.00102002
0.00100327
0.000987045
0.00097131
0.000956046
0.000941233
0.000926851
0.000912883
0.00089931
0.000886118
0.00087329
0.000860811
0.000848668
0.000836848
0.000825339
0.000814127
0.000803203
0.000792555
0.000782173
0.000772048
0.00076217
0.000752531
0.000743122
0.000733934
0.000724962
0.000716196
0.000707631
0.000699259
0.000691074
0.000683071
0.000675242
0.000667584
0.000660089
0.000652754
0.000645598
0.00355999
0.00338664
0.0032285
0.00308371
0.00295068
0.00282806
0.00271471
0.00260964
0.00251199
0.00242102
0.00233608
0.00225661
0.0021821
0.00211211
0.00204626
0.00198419
0.0019256
0.0018702
0.00181775
0.00176803
0.00172082
0.00167596
0.00163327
0.0015926
0.00155382
0.0015168
0.00148143
0.00144759
0.0014152
0.00138415
0.00135438
0.0013258
0.00129835
0.00127195
0.00124656
0.00122211
0.00119856
0.00117585
0.00115395
0.00113281
0.0011124
0.00109267
0.0010736
0.00105516
0.0010373
0.00102002
0.00100327
0.000987045
0.00097131
0.000956046
0.000941233
0.000926851
0.000912883
0.000899311
0.000886118
0.00087329
0.000860811
0.000848669
0.000836849
0.000825339
0.000814127
0.000803203
0.000792555
0.000782173
0.000772048
0.00076217
0.000752531
0.000743122
0.000733934
0.000724962
0.000716196
0.000707631
0.000699259
0.000691075
0.000683071
0.000675243
0.000667584
0.000660089
0.000652754
0.000645598
0.00355999
0.00338664
0.0032285
0.00308371
0.00295068
0.00282806
0.00271471
0.00260964
0.00251199
0.00242102
0.00233608
0.00225661
0.0021821
0.00211211
0.00204626
0.00198419
0.0019256
0.0018702
0.00181775
0.00176803
0.00172082
0.00167596
0.00163327
0.0015926
0.00155382
0.0015168
0.00148143
0.00144759
0.0014152
0.00138415
0.00135438
0.0013258
0.00129835
0.00127195
0.00124656
0.00122211
0.00119856
0.00117585
0.00115395
0.00113281
0.0011124
0.00109267
0.0010736
0.00105516
0.0010373
0.00102002
0.00100327
0.000987045
0.00097131
0.000956046
0.000941233
0.000926851
0.000912883
0.00089931
0.000886118
0.00087329
0.000860811
0.000848669
0.000836849
0.000825339
0.000814127
0.000803203
0.000792555
0.000782173
0.000772048
0.00076217
0.000752531
0.000743122
0.000733934
0.000724962
0.000716196
0.000707631
0.000699259
0.000691075
0.000683071
0.000675243
0.000667584
0.000660089
0.000652754
0.000645598
0.00355999
0.00338664
0.0032285
0.00308371
0.00295068
0.00282806
0.00271471
0.00260964
0.00251199
0.00242102
0.00233608
0.00225661
0.0021821
0.00211211
0.00204626
0.00198419
0.0019256
0.0018702
0.00181775
0.00176803
0.00172082
0.00167596
0.00163327
0.0015926
0.00155382
0.0015168
0.00148143
0.00144759
0.0014152
0.00138415
0.00135438
0.0013258
0.00129835
0.00127195
0.00124656
0.00122211
0.00119856
0.00117585
0.00115395
0.00113281
0.0011124
0.00109267
0.0010736
0.00105516
0.0010373
0.00102002
0.00100327
0.000987045
0.00097131
0.000956045
0.000941232
0.000926851
0.000912882
0.00089931
0.000886118
0.000873289
0.000860811
0.000848668
0.000836848
0.000825338
0.000814127
0.000803203
0.000792555
0.000782173
0.000772048
0.00076217
0.000752531
0.000743121
0.000733934
0.000724962
0.000716196
0.000707631
0.000699259
0.000691074
0.000683071
0.000675242
0.000667584
0.000660089
0.000652754
0.000645598
0.00355999
0.00338664
0.0032285
0.00308371
0.00295068
0.00282806
0.00271471
0.00260964
0.00251199
0.00242102
0.00233608
0.00225661
0.0021821
0.00211212
0.00204626
0.00198419
0.0019256
0.0018702
0.00181775
0.00176803
0.00172083
0.00167596
0.00163327
0.00159261
0.00155382
0.0015168
0.00148143
0.00144759
0.0014152
0.00138415
0.00135438
0.0013258
0.00129835
0.00127195
0.00124656
0.00122211
0.00119856
0.00117585
0.00115395
0.00113281
0.0011124
0.00109267
0.0010736
0.00105515
0.0010373
0.00102002
0.00100327
0.000987044
0.000971309
0.000956045
0.000941232
0.00092685
0.000912882
0.00089931
0.000886117
0.000873289
0.000860811
0.000848668
0.000836848
0.000825338
0.000814127
0.000803202
0.000792554
0.000782173
0.000772048
0.00076217
0.00075253
0.000743121
0.000733934
0.000724961
0.000716196
0.00070763
0.000699259
0.000691074
0.00068307
0.000675242
0.000667583
0.000660089
0.000652754
0.000645597
0.00355999
0.00338664
0.0032285
0.00308371
0.00295068
0.00282806
0.00271471
0.00260964
0.00251199
0.00242102
0.00233608
0.00225661
0.0021821
0.00211212
0.00204626
0.00198419
0.0019256
0.0018702
0.00181775
0.00176803
0.00172083
0.00167596
0.00163327
0.00159261
0.00155383
0.0015168
0.00148143
0.00144759
0.0014152
0.00138415
0.00135438
0.0013258
0.00129834
0.00127195
0.00124656
0.00122211
0.00119856
0.00117585
0.00115395
0.00113281
0.0011124
0.00109267
0.0010736
0.00105515
0.0010373
0.00102002
0.00100327
0.000987044
0.000971308
0.000956044
0.000941231
0.00092685
0.000912881
0.000899309
0.000886117
0.000873288
0.00086081
0.000848667
0.000836847
0.000825338
0.000814126
0.000803202
0.000792554
0.000782172
0.000772047
0.000762169
0.00075253
0.000743121
0.000733933
0.000724961
0.000716195
0.00070763
0.000699258
0.000691074
0.00068307
0.000675242
0.000667583
0.000660088
0.000652753
0.000645597
0.00355999
0.00338664
0.0032285
0.00308371
0.00295068
0.00282806
0.00271471
0.00260964
0.00251199
0.00242102
0.00233608
0.00225661
0.0021821
0.00211212
0.00204626
0.0019842
0.0019256
0.00187021
0.00181776
0.00176803
0.00172083
0.00167597
0.00163328
0.00159261
0.00155383
0.00151681
0.00148143
0.00144759
0.0014152
0.00138415
0.00135438
0.0013258
0.00129834
0.00127195
0.00124655
0.00122211
0.00119855
0.00117585
0.00115395
0.00113281
0.00111239
0.00109267
0.0010736
0.00105515
0.0010373
0.00102002
0.00100327
0.000987043
0.000971307
0.000956043
0.00094123
0.000926849
0.00091288
0.000899308
0.000886116
0.000873288
0.000860809
0.000848667
0.000836847
0.000825337
0.000814125
0.000803201
0.000792553
0.000782172
0.000772046
0.000762169
0.000752529
0.00074312
0.000733933
0.00072496
0.000716195
0.000707629
0.000699258
0.000691073
0.00068307
0.000675241
0.000667582
0.000660088
0.000652753
0.000645596
0.00355999
0.00338664
0.0032285
0.00308371
0.00295068
0.00282806
0.00271471
0.00260964
0.00251199
0.00242102
0.00233609
0.00225661
0.0021821
0.00211212
0.00204627
0.0019842
0.0019256
0.00187021
0.00181776
0.00176804
0.00172083
0.00167597
0.00163328
0.00159261
0.00155383
0.00151681
0.00148143
0.00144759
0.0014152
0.00138415
0.00135438
0.0013258
0.00129834
0.00127195
0.00124655
0.0012221
0.00119855
0.00117585
0.00115394
0.00113281
0.00111239
0.00109267
0.0010736
0.00105515
0.0010373
0.00102001
0.00100327
0.000987041
0.000971306
0.000956042
0.000941229
0.000926848
0.00091288
0.000899307
0.000886115
0.000873287
0.000860808
0.000848666
0.000836846
0.000825336
0.000814125
0.0008032
0.000792553
0.000782171
0.000772046
0.000762168
0.000752529
0.000743119
0.000733932
0.00072496
0.000716194
0.000707629
0.000699257
0.000691072
0.000683069
0.000675241
0.000667582
0.000660087
0.000652752
0.000645596
0.00355999
0.00338664
0.0032285
0.00308371
0.00295068
0.00282806
0.00271471
0.00260964
0.00251199
0.00242102
0.00233609
0.00225661
0.00218211
0.00211212
0.00204627
0.0019842
0.00192561
0.00187021
0.00181776
0.00176804
0.00172084
0.00167597
0.00163328
0.00159262
0.00155383
0.00151681
0.00148143
0.00144759
0.0014152
0.00138415
0.00135438
0.00132579
0.00129834
0.00127194
0.00124655
0.0012221
0.00119855
0.00117584
0.00115394
0.0011328
0.00111239
0.00109266
0.0010736
0.00105515
0.0010373
0.00102001
0.00100327
0.00098704
0.000971305
0.000956041
0.000941228
0.000926847
0.000912879
0.000899306
0.000886114
0.000873286
0.000860808
0.000848665
0.000836845
0.000825335
0.000814124
0.0008032
0.000792552
0.00078217
0.000772045
0.000762167
0.000752528
0.000743119
0.000733932
0.000724959
0.000716193
0.000707628
0.000699256
0.000691072
0.000683068
0.00067524
0.000667581
0.000660087
0.000652751
0.000645595
0.00355999
0.00338664
0.0032285
0.00308371
0.00295068
0.00282806
0.00271471
0.00260964
0.00251199
0.00242102
0.00233609
0.00225661
0.00218211
0.00211212
0.00204627
0.0019842
0.00192561
0.00187021
0.00181777
0.00176804
0.00172084
0.00167598
0.00163329
0.00159262
0.00155384
0.00151681
0.00148143
0.00144759
0.0014152
0.00138415
0.00135437
0.00132579
0.00129834
0.00127194
0.00124655
0.0012221
0.00119855
0.00117584
0.00115394
0.0011328
0.00111239
0.00109266
0.00107359
0.00105515
0.0010373
0.00102001
0.00100327
0.000987039
0.000971304
0.00095604
0.000941227
0.000926846
0.000912878
0.000899305
0.000886113
0.000873285
0.000860807
0.000848664
0.000836844
0.000825334
0.000814123
0.000803199
0.000792551
0.000782169
0.000772044
0.000762166
0.000752527
0.000743118
0.000733931
0.000724958
0.000716193
0.000707627
0.000699256
0.000691071
0.000683068
0.000675239
0.000667581
0.000660086
0.000652751
0.000645595
0.00355999
0.00338664
0.0032285
0.00308371
0.00295068
0.00282806
0.00271471
0.00260964
0.00251199
0.00242102
0.00233609
0.00225662
0.00218211
0.00211212
0.00204627
0.0019842
0.00192561
0.00187022
0.00181777
0.00176805
0.00172084
0.00167598
0.00163329
0.00159262
0.00155384
0.00151682
0.00148144
0.00144759
0.0014152
0.00138415
0.00135437
0.00132579
0.00129833
0.00127194
0.00124654
0.0012221
0.00119854
0.00117584
0.00115394
0.0011328
0.00111239
0.00109266
0.00107359
0.00105515
0.00103729
0.00102001
0.00100327
0.000987038
0.000971303
0.000956039
0.000941226
0.000926845
0.000912876
0.000899304
0.000886112
0.000873284
0.000860806
0.000848663
0.000836843
0.000825333
0.000814122
0.000803198
0.00079255
0.000782168
0.000772043
0.000762166
0.000752526
0.000743117
0.00073393
0.000724957
0.000716192
0.000707627
0.000699255
0.00069107
0.000683067
0.000675239
0.00066758
0.000660085
0.00065275
0.000645594
0.00355999
0.00338664
0.0032285
0.00308371
0.00295068
0.00282806
0.00271471
0.00260964
0.00251199
0.00242103
0.00233609
0.00225662
0.00218211
0.00211213
0.00204627
0.00198421
0.00192561
0.00187022
0.00181777
0.00176805
0.00172085
0.00167598
0.00163329
0.00159263
0.00155384
0.00151682
0.00148144
0.0014476
0.0014152
0.00138415
0.00135437
0.00132579
0.00129833
0.00127194
0.00124654
0.00122209
0.00119854
0.00117583
0.00115393
0.0011328
0.00111238
0.00109266
0.00107359
0.00105514
0.00103729
0.00102001
0.00100326
0.000987036
0.000971301
0.000956038
0.000941225
0.000926843
0.000912875
0.000899303
0.000886111
0.000873283
0.000860805
0.000848662
0.000836842
0.000825333
0.000814121
0.000803197
0.000792549
0.000782168
0.000772043
0.000762165
0.000752525
0.000743116
0.000733929
0.000724957
0.000716191
0.000707626
0.000699254
0.00069107
0.000683066
0.000675238
0.000667579
0.000660085
0.000652749
0.000645593
0.00355999
0.00338664
0.0032285
0.00308371
0.00295068
0.00282806
0.00271471
0.00260964
0.00251199
0.00242103
0.00233609
0.00225662
0.00218211
0.00211213
0.00204628
0.00198421
0.00192562
0.00187022
0.00181778
0.00176805
0.00172085
0.00167599
0.0016333
0.00159263
0.00155385
0.00151682
0.00148144
0.0014476
0.0014152
0.00138415
0.00135437
0.00132579
0.00129833
0.00127193
0.00124654
0.00122209
0.00119854
0.00117583
0.00115393
0.00113279
0.00111238
0.00109266
0.00107359
0.00105514
0.00103729
0.00102001
0.00100326
0.000987035
0.0009713
0.000956036
0.000941224
0.000926842
0.000912874
0.000899302
0.00088611
0.000873282
0.000860804
0.000848661
0.000836841
0.000825332
0.00081412
0.000803196
0.000792548
0.000782167
0.000772042
0.000762164
0.000752525
0.000743116
0.000733928
0.000724956
0.00071619
0.000707625
0.000699254
0.000691069
0.000683065
0.000675237
0.000667578
0.000660084
0.000652749
0.000645593
0.00355999
0.00338664
0.0032285
0.00308371
0.00295068
0.00282806
0.00271471
0.00260964
0.00251199
0.00242103
0.00233609
0.00225662
0.00218211
0.00211213
0.00204628
0.00198421
0.00192562
0.00187023
0.00181778
0.00176806
0.00172085
0.00167599
0.0016333
0.00159263
0.00155385
0.00151682
0.00148144
0.0014476
0.0014152
0.00138415
0.00135437
0.00132579
0.00129833
0.00127193
0.00124654
0.00122209
0.00119853
0.00117583
0.00115393
0.00113279
0.00111238
0.00109265
0.00107359
0.00105514
0.00103729
0.00102001
0.00100326
0.000987034
0.000971299
0.000956035
0.000941223
0.000926841
0.000912873
0.000899301
0.000886109
0.000873281
0.000860803
0.00084866
0.000836841
0.000825331
0.00081412
0.000803195
0.000792548
0.000782166
0.000772041
0.000762163
0.000752524
0.000743115
0.000733928
0.000724955
0.00071619
0.000707625
0.000699253
0.000691068
0.000683065
0.000675236
0.000667578
0.000660083
0.000652748
0.000645592
0.00355999
0.00338664
0.0032285
0.00308371
0.00295068
0.00282806
0.00271471
0.00260964
0.002512
0.00242103
0.00233609
0.00225662
0.00218211
0.00211213
0.00204628
0.00198421
0.00192562
0.00187023
0.00181778
0.00176806
0.00172086
0.00167599
0.0016333
0.00159264