/*--------------------------------*- C++ -*----------------------------------*\
| =========                 |                                                 |
| \\      /  F ield         | OpenFOAM: The Open Source CFD Toolbox           |
|  \\    /   O peration     | Version:  2512                                  |
|   \\  /    A nd           | Website:  www.openfoam.com                      |
|    \\/     M anipulation  |                                                 |
\*---------------------------------------------------------------------------*/
FoamFile
{
    version     2.0;
    format      ascii;
    arch        "LSB;label=32;scalar=64";
    class       volScalarField;
    location    "167";
    object      p;
}
// * * * * * * * * * * * * * * * * * * * * * * * * * * * * * * * * * * * * * //

dimensions      [0 2 -2 0 0 0 0];

internalField   nonuniform List<scalar> 
335663
(
0.000705885
0.000704963
0.000702619
0.000698862
0.000693637
0.000686737
0.000677878
0.00066672
0.000652858
0.000635813
0.000615031
0.000589882
0.000559674
0.000523663
0.000481088
0.000431207
0.000373357
0.000307033
0.000231983
0.000148323
5.66532e-05
-4.18235e-05
-0.000145219
-0.000250923
-0.000355652
-0.000455598
-0.00054669
-0.000624963
-0.000686981
-0.000730257
-0.000753568
-0.000757112
-0.000742445
-0.000712216
-0.000669778
-0.000618744
-0.000562603
-0.000504431
-0.000446743
-0.000391435
-0.000339818
-0.000292693
-0.000250444
-0.000213136
-0.000180611
-0.000152559
-0.000128582
-0.000108244
-9.11019e-05
-7.67278e-05
-6.47245e-05
-5.47323e-05
-4.64324e-05
-3.9547e-05
-3.38367e-05
-2.9098e-05
-2.5159e-05
-2.1876e-05
-1.91293e-05
-1.68203e-05
-1.48674e-05
-1.32039e-05
-1.17754e-05
-1.05373e-05
-9.45345e-06
-8.4944e-06
-7.63638e-06
-6.8601e-06
-6.15004e-06
-5.49363e-06
-4.88071e-06
-4.303e-06
-3.75376e-06
-3.22746e-06
-2.71951e-06
-2.22605e-06
-1.74377e-06
-1.26988e-06
-8.00271e-07
-3.53802e-07
0.000706156
0.000705242
0.000702921
0.000699199
0.000694021
0.000687183
0.0006784
0.000667333
0.000653579
0.000636659
0.000616018
0.000591024
0.000560981
0.00052514
0.000482729
0.000432993
0.000375251
0.000308978
0.000233896
0.000150095
5.81509e-05
-4.07512e-05
-0.000144729
-0.000251162
-0.00035673
-0.000457566
-0.000549521
-0.000628536
-0.000691088
-0.000734621
-0.000757886
-0.000761094
-0.000745857
-0.000714908
-0.000671692
-0.000619904
-0.000563092
-0.000504369
-0.000446259
-0.000390656
-0.000338855
-0.000291638
-0.000249367
-0.00021209
-0.000179628
-0.00015166
-0.000127778
-0.000107536
-9.04879e-05
-7.62012e-05
-6.42772e-05
-5.43556e-05
-4.61174e-05
-3.9285e-05
-3.362e-05
-2.89195e-05
-2.50125e-05
-2.17561e-05
-1.90315e-05
-1.67405e-05
-1.48024e-05
-1.31511e-05
-1.17324e-05
-1.05022e-05
-9.42478e-06
-8.47091e-06
-7.61703e-06
-6.84409e-06
-6.1367e-06
-5.48242e-06
-4.87121e-06
-4.29489e-06
-3.74677e-06
-3.2214e-06
-2.71424e-06
-2.22148e-06
-1.73985e-06
-1.26663e-06
-7.97828e-07
-3.52122e-07
0.000706692
0.000705795
0.000703517
0.000699864
0.00069478
0.000688062
0.00067943
0.000668544
0.000655004
0.000638331
0.000617969
0.000593283
0.000563568
0.000528065
0.00048598
0.000436534
0.000379011
0.000312842
0.000237702
0.000153626
6.11441e-05
-3.85981e-05
-0.000143731
-0.000251609
-0.000358848
-0.00046146
-0.000555137
-0.000635636
-0.000699257
-0.000743309
-0.000766481
-0.000769017
-0.000752639
-0.000720252
-0.000675484
-0.000622194
-0.000564049
-0.00050423
-0.000445286
-0.0003891
-0.000336938
-0.00028954
-0.000247229
-0.000210013
-0.000177679
-0.000149879
-0.000126184
-0.000106135
-8.92719e-05
-7.51586e-05
-6.33919e-05
-5.361e-05
-4.54939e-05
-3.87668e-05
-3.31915e-05
-2.85667e-05
-2.47232e-05
-2.15196e-05
-1.88387e-05
-1.65837e-05
-1.46752e-05
-1.3048e-05
-1.16489e-05
-1.04348e-05
-9.37036e-06
-8.427e-06
-7.58162e-06
-6.81555e-06
-6.11372e-06
-5.46396e-06
-4.85643e-06
-4.28312e-06
-3.73752e-06
-3.21426e-06
-2.70894e-06
-2.21782e-06
-1.73773e-06
-1.26599e-06
-7.98607e-07
-3.53879e-07
0.000707479
0.000706607
0.000704394
0.000700843
0.000695897
0.000689358
0.000680946
0.000670328
0.000657103
0.000640796
0.000620847
0.000596616
0.000567389
0.000532386
0.000490789
0.000441778
0.000384587
0.000318582
0.000243366
0.000158896
6.56259e-05
-3.53538e-05
-0.000142195
-0.000252223
-0.00036195
-0.000467218
-0.000563474
-0.000646201
-0.000711427
-0.000756256
-0.000779287
-0.000780806
-0.000762711
-0.000728164
-0.000681072
-0.000625541
-0.000565415
-0.000503975
-0.000443801
-0.000386759
-0.00033407
-0.000286415
-0.000244053
-0.000206932
-0.000174793
-0.000147245
-0.00012383
-0.000104066
-8.74783e-05
-7.36216e-05
-6.20875e-05
-5.25119e-05
-4.45759e-05
-3.80038e-05
-3.25605e-05
-2.8047e-05
-2.42966e-05
-2.11705e-05
-1.85536e-05
-1.63513e-05
-1.44859e-05
-1.28938e-05
-1.15234e-05
-1.03324e-05
-9.28659e-06
-8.35824e-06
-7.52491e-06
-6.76848e-06
-6.07437e-06
-5.43079e-06
-4.82823e-06
-4.25892e-06
-3.71658e-06
-3.19602e-06
-2.69299e-06
-2.20392e-06
-1.72573e-06
-1.25588e-06
-7.90568e-07
-3.48449e-07
0.0007085
0.000707661
0.000705531
0.000702112
0.000697346
0.000691038
0.000682914
0.000672643
0.00065983
0.000643999
0.00062459
0.000600955
0.000572368
0.000538024
0.000497071
0.000448639
0.000391894
0.000326122
0.000250827
0.000165861
7.15782e-05
-3.1008e-05
-0.000140083
-0.000252935
-0.000365948
-0.000474733
-0.000574418
-0.000660112
-0.000727478
-0.000773343
-0.000796177
-0.000796331
-0.00077594
-0.000738513
-0.000688336
-0.000629843
-0.000567112
-0.000503551
-0.000441778
-0.000383632
-0.000330272
-0.000282296
-0.00023988
-0.000202896
-0.00017102
-0.000143807
-0.000120761
-0.000101371
-8.51451e-05
-7.16239e-05
-6.03933e-05
-5.10868e-05
-4.33853e-05
-3.7015e-05
-3.17435e-05
-2.73749e-05
-2.37458e-05
-2.07205e-05
-1.81871e-05
-1.60535e-05
-1.42445e-05
-1.26985e-05
-1.13656e-05
-1.02051e-05
-9.18408e-06
-8.27577e-06
-7.45863e-06
-6.7153e-06
-6.03179e-06
-5.39683e-06
-4.80129e-06
-4.23775e-06
-3.7002e-06
-3.1837e-06
-2.68418e-06
-2.19826e-06
-1.723e-06
-1.25595e-06
-7.93204e-07
-3.52599e-07
0.000709731
0.000708932
0.000706902
0.000703642
0.000699094
0.000693065
0.000685289
0.00067544
0.000663126
0.000647873
0.000629119
0.000606212
0.000578406
0.000544872
0.000504714
0.000457002
0.000400823
0.00033536
0.000259998
0.000174459
7.89716e-05
-2.55532e-05
-0.000137347
-0.00025366
-0.000370722
-0.000483863
-0.000587812
-0.000677207
-0.000747247
-0.000794402
-0.000816982
-0.000815418
-0.000792147
-0.000751126
-0.000697118
-0.000634969
-0.000569041
-0.000502897
-0.00043919
-0.000379724
-0.00032557
-0.000277227
-0.000234766
-0.000197966
-0.000166422
-0.000139627
-0.000117036
-9.81053e-05
-8.23197e-05
-6.92068e-05
-5.83448e-05
-4.93643e-05
-4.19466e-05
-3.58202e-05
-3.07558e-05
-2.65617e-05
-2.30785e-05
-2.01744e-05
-1.7741e-05
-1.56896e-05
-1.39478e-05
-1.24566e-05
-1.11682e-05
-1.00437e-05
-9.0517e-06
-8.16672e-06
-7.36829e-06
-6.63993e-06
-5.96842e-06
-5.34306e-06
-4.75524e-06
-4.19794e-06
-3.66548e-06
-3.15321e-06
-2.65732e-06
-2.17462e-06
-1.70239e-06
-1.23833e-06
-7.7888e-07
-3.42579e-07
0.000711142
0.000710389
0.000708475
0.000705398
0.000701099
0.000695393
0.000688017
0.000678654
0.000666915
0.000652331
0.000634338
0.000612276
0.000585381
0.000552795
0.000513574
0.00046672
0.000411226
0.000346158
0.00027076
0.0001846
8.77532e-05
-1.89956e-05
-0.000133943
-0.000254301
-0.000376129
-0.000494428
-0.00060345
-0.000697263
-0.000770503
-0.000819199
-0.000841461
-0.000837821
-0.00081109
-0.000765774
-0.000707217
-0.000640756
-0.000571089
-0.000501945
-0.000436015
-0.000375046
-0.000320007
-0.000271271
-0.000228787
-0.000192224
-0.000161082
-0.000134784
-0.000112729
-9.43362e-05
-7.90642e-05
-6.64255e-05
-5.59906e-05
-4.73872e-05
-4.02973e-05
-3.44522e-05
-2.96269e-05
-2.56341e-05
-2.23192e-05
-1.95549e-05
-1.72371e-05
-1.52808e-05
-1.3617e-05
-1.21896e-05
-1.09531e-05
-9.87086e-06
-8.91308e-06
-8.05579e-06
-7.27975e-06
-6.56951e-06
-5.91266e-06
-5.29922e-06
-4.72113e-06
-4.17181e-06
-3.64598e-06
-3.1393e-06
-2.64826e-06
-2.16991e-06
-1.7017e-06
-1.24145e-06
-7.85344e-07
-3.50601e-07
0.000712701
0.000711999
0.000710212
0.000707338
0.000703316
0.000697966
0.000691035
0.000682211
0.000671113
0.000657275
0.000640132
0.000619016
0.000593147
0.000561633
0.00052348
0.000477612
0.000422922
0.000358343
0.000282959
0.00019616
9.78421e-05
-1.13613e-05
-0.000129832
-0.000254755
-0.000382003
-0.000506206
-0.000621068
-0.000719991
-0.00079694
-0.000847418
-0.000869297
-0.000863226
-0.000832468
-0.000782181
-0.000718398
-0.000647023
-0.000573132
-0.000500632
-0.000432241
-0.000369631
-0.000313646
-0.000264513
-0.000222041
-0.000185771
-0.000155102
-0.000129374
-0.000107929
-9.01423e-05
-7.54468e-05
-6.33384e-05
-5.33794e-05
-4.51951e-05
-3.84687e-05
-3.2935e-05
-2.83736e-05
-2.46027e-05
-2.14728e-05
-1.8862e-05
-1.66707e-05
-1.48182e-05
-1.32392e-05
-1.18809e-05
-1.07005e-05
-9.66357e-06
-8.74229e-06
-7.91433e-06
-7.16178e-06
-6.47035e-06
-5.82858e-06
-5.22723e-06
-4.65887e-06
-4.11743e-06
-3.59805e-06
-3.09676e-06
-2.61036e-06
-2.13618e-06
-1.6719e-06
-1.21555e-06
-7.63831e-07
-3.35141e-07
0.000714371
0.000713723
0.000712074
0.000709416
0.000705692
0.000700726
0.000694273
0.00068603
0.000675624
0.000662592
0.000646371
0.000626285
0.000601537
0.0005712
0.000534227
0.000489463
0.000435691
0.000371698
0.000296394
0.00020897
0.000109118
-2.70757e-06
-0.000124997
-0.00025492
-0.000388159
-0.000518937
-0.000640345
-0.000745023
-0.000826161
-0.000878649
-0.000900075
-0.000891229
-0.000855903
-0.000800016
-0.000730389
-0.000653571
-0.000575045
-0.000498904
-0.000427875
-0.000363533
-0.000306574
-0.000257062
-0.000214647
-0.000178731
-0.000148602
-0.000123512
-0.000102741
-8.56197e-05
-7.15535e-05
-6.00219e-05
-5.05792e-05
-4.28485e-05
-3.6515e-05
-3.13175e-05
-2.7041e-05
-2.35096e-05
-2.05797e-05
-1.81347e-05
-1.60803e-05
-1.43405e-05
-1.28538e-05
-1.15709e-05
-1.04519e-05
-9.46489e-06
-8.58407e-06
-7.78883e-06
-7.06273e-06
-6.39268e-06
-5.76821e-06
-5.18092e-06
-4.624e-06
-4.09195e-06
-3.58033e-06
-3.08558e-06
-2.60483e-06
-2.13568e-06
-1.67605e-06
-1.22406e-06
-7.75983e-07
-3.48319e-07
0.000716113
0.000715521
0.000714015
0.000711585
0.000708171
0.000703606
0.000697655
0.000690022
0.000680343
0.00066816
0.000652912
0.000633918
0.000610361
0.000581285
0.000545585
0.000502026
0.000449273
0.000385964
0.00031082
0.000222815
0.000121414
6.86801e-06
-0.000119448
-0.000254706
-0.0003944
-0.000532322
-0.000660891
-0.000771901
-0.000857664
-0.000912369
-0.000933275
-0.000921334
-0.000880943
-0.000818892
-0.00074289
-0.000660191
-0.000576714
-0.000496727
-0.000422948
-0.000356834
-0.000298909
-0.000249055
-0.000206749
-0.000171247
-0.000141717
-0.000117322
-9.72754e-05
-8.08647e-05
-6.74662e-05
-5.65435e-05
-4.76438e-05
-4.03888e-05
-3.44659e-05
-2.9619e-05
-2.56388e-05
-2.23558e-05
-1.96327e-05
-1.73588e-05
-1.54453e-05
-1.38209e-05
-1.24284e-05
-1.12221e-05
-1.01653e-05
-9.22854e-06
-8.38814e-06
-7.62535e-06
-6.92526e-06
-6.27604e-06
-5.6683e-06
-5.09446e-06
-4.54841e-06
-4.02518e-06
-3.52083e-06
-3.03219e-06
-2.55674e-06
-2.09242e-06
-1.63737e-06
-1.18998e-06
-7.47196e-07
-3.27222e-07
0.000717884
0.00071735
0.00071599
0.000713792
0.000710695
0.00070654
0.0007011
0.000694091
0.000685157
0.000673847
0.000659602
0.000641735
0.000619417
0.000591657
0.000557297
0.000515019
0.000463373
0.000400839
0.000325942
0.000237426
0.00013451
1.72177e-05
-0.000113235
-0.000254046
-0.000400527
-0.000546029
-0.000682255
-0.000800076
-0.000890833
-0.000947928
-0.000968253
-0.000952937
-0.000907057
-0.000838376
-0.000755579
-0.000666679
-0.000578041
-0.000494096
-0.000417528
-0.000349652
-0.0002908
-0.000240658
-0.00019852
-0.000163489
-0.000134609
-0.000110954
-9.16691e-05
-7.59999e-05
-6.32946e-05
-5.30019e-05
-4.46622e-05
-3.78967e-05
-3.23961e-05
-2.79092e-05
-2.42334e-05
-2.12056e-05
-1.86951e-05
-1.65974e-05
-1.48292e-05
-1.33241e-05
-1.20293e-05
-1.09029e-05
-9.91106e-06
-9.02703e-06
-8.22934e-06
-7.50106e-06
-6.82882e-06
-6.20209e-06
-5.61252e-06
-5.05339e-06
-4.51927e-06
-4.00578e-06
-3.50941e-06
-3.02745e-06
-2.55774e-06
-2.09852e-06
-1.64816e-06
-1.20509e-06
-7.65706e-07
-3.45756e-07
0.000719644
0.000719167
0.000717952
0.000715984
0.000713203
0.000709455
0.000704526
0.000698141
0.000689951
0.000679516
0.000666279
0.000649551
0.000628487
0.000602067
0.000569083
0.000528136
0.000477659
0.000415977
0.000341414
0.000252476
0.000148125
2.81363e-05
-0.000106457
-0.000252902
-0.000406347
-0.0005597
-0.00070392
-0.000828897
-0.000924925
-0.000984545
-0.00100424
-0.000985325
-0.000933635
-0.000857988
-0.000768121
-0.00067284
-0.000578955
-0.00049104
-0.000411718
-0.000342138
-0.000282428
-0.000232062
-0.000190149
-0.000155635
-0.000127441
-0.00010455
-8.60452e-05
-7.11281e-05
-5.91218e-05
-4.94611e-05
-4.16811e-05
-3.54031e-05
-3.03216e-05
-2.6191e-05
-2.28154e-05
-2.00386e-05
-1.77366e-05
-1.5811e-05
-1.41842e-05
-1.27949e-05
-1.15947e-05
-1.0545e-05
-9.6154e-06
-8.78161e-06
-8.02437e-06
-7.32857e-06
-6.6824e-06
-6.07662e-06
-5.50391e-06
-4.95841e-06
-4.43535e-06
-3.9309e-06
-3.44204e-06
-2.96646e-06
-2.50238e-06
-2.04833e-06
-1.60295e-06
-1.16494e-06
-7.31474e-07
-3.20408e-07
0.00072135
0.000720929
0.000719854
0.00071811
0.000715635
0.000712283
0.00070785
0.000702071
0.000694609
0.000685028
0.000672779
0.000657169
0.000637344
0.000612255
0.000580647
0.000541045
0.00049177
0.000430995
0.000356844
0.000267588
0.00016192
3.93578e-05
-9.92693e-05
-0.000251282
-0.000411687
-0.000572962
-0.000725317
-0.000857626
-0.00095908
-0.0010213
-0.00104033
-0.00101768
-0.000959994
-0.000877215
-0.000780179
-0.000678501
-0.000579423
-0.000487633
-0.000405667
-0.00033449
-0.000274011
-0.000223494
-0.000181859
-0.000147896
-0.000120408
-9.82906e-05
-8.05653e-05
-6.63955e-05
-5.50802e-05
-4.6042e-05
-3.88119e-05
-3.3012e-05
-2.8341e-05
-2.45595e-05
-2.14779e-05
-1.89472e-05
-1.68497e-05
-1.50933e-05
-1.36059e-05
-1.2331e-05
-1.12242e-05
-1.02509e-05
-9.38341e-06
-8.59992e-06
-7.88333e-06
-7.22028e-06
-6.60047e-06
-6.0159e-06
-5.46027e-06
-4.92851e-06
-4.41649e-06
-3.92093e-06
-3.43928e-06
-2.96964e-06
-2.5106e-06
-2.06098e-06
-1.61965e-06
-1.18533e-06
-7.54525e-07
-3.4236e-07
0.000722963
0.000722594
0.000721652
0.000720118
0.000717932
0.000714955
0.000710991
0.000705787
0.000699014
0.000690246
0.000678938
0.000664398
0.000645762
0.000621958
0.000591686
0.000553403
0.000505326
0.000445482
0.000371807
0.000282336
0.000175502
5.05561e-05
-9.18862e-05
-0.000249241
-0.000416401
-0.000585441
-0.000745834
-0.00088544
-0.000992322
-0.00105715
-0.00107549
-0.00104909
-0.000985395
-0.000895522
-0.000791426
-0.000683522
-0.000579453
-0.000483989
-0.000399558
-0.000326928
-0.000265787
-0.000215188
-0.000173869
-0.00014047
-0.000113683
-9.23197e-05
-7.53478e-05
-6.18946e-05
-5.1238e-05
-4.27906e-05
-3.608e-05
-3.07303e-05
-2.64446e-05
-2.29894e-05
-2.01821e-05
-1.78799e-05
-1.5972e-05
-1.43718e-05
-1.30125e-05
-1.18424e-05
-1.08212e-05
-9.91735e-06
-9.10616e-06
-8.36816e-06
-7.6882e-06
-7.05465e-06
-6.4586e-06
-5.89322e-06
-5.35317e-06
-4.83409e-06
-4.33247e-06
-3.84549e-06
-3.37105e-06
-2.90763e-06
-2.45415e-06
-2.00975e-06
-1.5735e-06
-1.14438e-06
-7.19628e-07
-3.16542e-07
0.000724443
0.000724123
0.000723302
0.000721961
0.000720039
0.000717405
0.000713872
0.000709195
0.000703055
0.000695036
0.000684597
0.000671048
0.000653516
0.000630912
0.000601896
0.000564864
0.000517939
0.000459014
0.000385849
0.000296262
0.000188432
6.13543e-05
-8.45766e-05
-0.000246886
-0.000420383
-0.000596775
-0.000764844
-0.000911465
-0.00102359
-0.00109095
-0.00110863
-0.00107857
-0.00100906
-0.000912377
-0.000801565
-0.000687803
-0.000579098
-0.00048027
-0.00039362
-0.000319715
-0.000258029
-0.000207414
-0.000166433
-0.000133593
-0.00010748
-8.68333e-05
-7.05703e-05
-5.77873e-05
-4.77444e-05
-3.98456e-05
-3.36167e-05
-2.86839e-05
-2.47547e-05
-2.16016e-05
-1.90481e-05
-1.69579e-05
-1.52257e-05
-1.37707e-05
-1.25309e-05
-1.14586e-05
-1.05173e-05
-9.67854e-06
-8.92016e-06
-8.22481e-06
-7.57916e-06
-6.97312e-06
-6.3991e-06
-5.85134e-06
-5.32534e-06
-4.81744e-06
-4.32464e-06
-3.84461e-06
-3.37563e-06
-2.91657e-06
-2.4667e-06
-2.02541e-06
-1.59195e-06
-1.16531e-06
-7.42109e-07
-3.37229e-07
0.000725757
0.000725479
0.000724765
0.000723594
0.000721906
0.000719574
0.000716421
0.00071221
0.000706632
0.000699276
0.000689609
0.000676942
0.000660397
0.000638869
0.000610987
0.000575092
0.000529226
0.000471166
0.000398516
0.000308894
0.000200252
7.1341e-05
-7.76526e-05
-0.000244372
-0.000423569
-0.000606634
-0.000781724
-0.000934807
-0.0010518
-0.0011215
-0.00113856
-0.0011051
-0.00103021
-0.000927261
-0.000810328
-0.000691285
-0.00057845
-0.000476664
-0.000388094
-0.000313113
-0.000250996
-0.000200413
-0.00015977
-0.000127452
-0.000101955
-8.19542e-05
-6.63254e-05
-5.41382e-05
-4.4638e-05
-3.72224e-05
-3.14161e-05
-2.68476e-05
-2.32291e-05
-2.03383e-05
-1.80047e-05
-1.60974e-05
-1.45166e-05
-1.31863e-05
-1.20486e-05
-1.10599e-05
-1.01869e-05
-9.40363e-06
-8.69029e-06
-8.03141e-06
-7.41524e-06
-6.83304e-06
-6.27837e-06
-5.74641e-06
-5.23339e-06
-4.73619e-06
-4.2523e-06
-3.77973e-06
-3.31712e-06
-2.86366e-06
-2.41889e-06
-1.98244e-06
-1.55376e-06
-1.13198e-06
-7.14282e-07
-3.17117e-07
0.000726874
0.000726631
0.000726007
0.000724979
0.000723486
0.000721409
0.000718576
0.000714757
0.000709651
0.000702854
0.000693839
0.000681919
0.000666213
0.000645601
0.000618689
0.000583774
0.000538831
0.000481539
0.000409369
0.000319772
0.0002105
8.00947e-05
-7.14492e-05
-0.000241888
-0.000425938
-0.000614733
-0.000795895
-0.000954599
-0.00107584
-0.0011476
-0.00116412
-0.00112769
-0.0010481
-0.000939703
-0.000817498
-0.000693953
-0.000577636
-0.000473387
-0.000383244
-0.000307406
-0.000244973
-0.000194454
-0.000154128
-0.000122275
-9.73151e-05
-7.78723e-05
-6.27875e-05
-5.1109e-05
-4.20709e-05
-3.50659e-05
-2.96182e-05
-2.53589e-05
-2.20039e-05
-1.93359e-05
-1.71889e-05
-1.54372e-05
-1.39851e-05
-1.27608e-05
-1.17103e-05
-1.07928e-05
-9.9777e-06
-9.24155e-06
-8.56623e-06
-7.93785e-06
-7.34602e-06
-6.78315e-06
-6.24378e-06
-5.72387e-06
-5.22028e-06
-4.73038e-06
-4.25201e-06
-3.78354e-06
-3.32392e-06
-2.87262e-06
-2.42947e-06
-1.9943e-06
-1.56669e-06
-1.14582e-06
-7.28481e-07
-3.29823e-07
0.000727767
0.000727552
0.000726999
0.000726082
0.000724743
0.000722865
0.000720282
0.000716771
0.000712035
0.000705678
0.000697175
0.000685844
0.000670798
0.000650911
0.00062477
0.000590638
0.000546438
0.000489775
0.000418015
0.000328476
0.000218752
8.72154e-05
-6.62962e-05
-0.000239638
-0.000427507
-0.000620843
-0.000806846
-0.000970057
-0.00109471
-0.00116815
-0.00118423
-0.0011454
-0.00106203
-0.00094929
-0.000822903
-0.000695818
-0.00057679
-0.000470645
-0.000379307
-0.000302833
-0.000240183
-0.00018974
-0.000149679
-0.000118201
-9.36685e-05
-7.46653e-05
-6.00062e-05
-4.87239e-05
-4.00442e-05
-3.33564e-05
-2.8185e-05
-2.41631e-05
-2.10099e-05
-1.85119e-05
-1.65073e-05
-1.48738e-05
-1.35196e-05
-1.23758e-05
-1.13913e-05
-1.0528e-05
-9.75728e-06
-9.05734e-06
-8.41154e-06
-7.80721e-06
-7.23498e-06
-6.68814e-06
-6.16199e-06
-5.65308e-06
-5.15871e-06
-4.67659e-06
-4.20483e-06
-3.74203e-06
-3.28737e-06
-2.84054e-06
-2.40154e-06
-1.97038e-06
-1.54672e-06
-1.12981e-06
-7.16592e-07
-3.22504e-07
0.000728418
0.000728222
0.000727717
0.000726878
0.000725646
0.000723907
0.000721498
0.000718201
0.000713724
0.000707672
0.000699527
0.000688606
0.000674022
0.000654643
0.000629043
0.000595463
0.000551792
0.000495581
0.000424126
0.000334654
0.000224648
9.23594e-05
-6.24845e-05
-0.000237812
-0.000428314
-0.000624796
-0.00081417
-0.000980532
-0.00110759
-0.0011822
-0.00119798
-0.00115747
-0.00107146
-0.000955702
-0.000826428
-0.000696919
-0.000576051
-0.000468633
-0.000376506
-0.000299624
-0.000236849
-0.000186479
-0.000146616
-0.000115409
-9.118e-05
-7.24864e-05
-5.81257e-05
-4.71203e-05
-3.86906e-05
-3.22239e-05
-2.72449e-05
-2.33883e-05
-2.03757e-05
-1.79962e-05
-1.60906e-05
-1.45394e-05
-1.32532e-05
-1.21652e-05
-1.12263e-05
-1.04001e-05
-9.65943e-06
-8.98364e-06
-8.35708e-06
-7.76792e-06
-7.20751e-06
-6.66979e-06
-6.15057e-06
-5.64684e-06
-5.15621e-06
-4.67664e-06
-4.20646e-06
-3.74444e-06
-3.28992e-06
-2.84279e-06
-2.40319e-06
-1.97127e-06
-1.5468e-06
-1.12907e-06
-7.15152e-07
-3.20983e-07
0.000728811
0.000728625
0.000728147
0.00072735
0.000726176
0.000724511
0.000722196
0.000719014
0.000714674
0.000708787
0.000700833
0.000690131
0.000675794
0.000656687
0.000631377
0.000598095
0.00055471
0.000498749
0.00042747
0.000338053
0.000227924
9.52716e-05
-6.02349e-05
-0.000236562
-0.0004284
-0.000626488
-0.000817587
-0.000985565
-0.00111386
-0.00118907
-0.0012047
-0.00116334
-0.001076
-0.000958713
-0.000827997
-0.000697288
-0.00057552
-0.000467486
-0.000374984
-0.000297917
-0.000235095
-0.000184775
-0.000145022
-0.000113958
-8.9887e-05
-7.13526e-05
-5.71442e-05
-4.62794e-05
-3.79759e-05
-3.16204e-05
-2.67379e-05
-2.29641e-05
-2.00217e-05
-1.77013e-05
-1.58452e-05
-1.43352e-05
-1.30831e-05
-1.20234e-05
-1.11079e-05
-1.03011e-05
-9.57648e-06
-8.91406e-06
-8.29865e-06
-7.7188e-06
-7.16623e-06
-6.63519e-06
-6.12174e-06
-5.62307e-06
-5.13694e-06
-4.66141e-06
-4.19488e-06
-3.73618e-06
-3.28473e-06
-2.84049e-06
-2.40367e-06
-1.97447e-06
-1.55266e-06
-1.13747e-06
-7.25545e-07
-3.31414e-07
0.000728939
0.000728755
0.00072828
0.000727488
0.000726321
0.000724665
0.00072236
0.00071919
0.000714865
0.000708994
0.000701059
0.000690378
0.000676065
0.000656984
0.000631702
0.00059845
0.000555097
0.000499169
0.000427923
0.000338538
0.00022844
9.58153e-05
-5.9667e-05
-0.000235974
-0.000427796
-0.000625869
-0.000816956
-0.000984922
-0.0011132
-0.00118841
-0.00120406
-0.00116272
-0.00107543
-0.000958217
-0.000827583
-0.000696956
-0.000575262
-0.00046729
-0.000374838
-0.000297811
-0.00023502
-0.000184722
-0.000144988
-0.000113937
-8.98766e-05
-7.13502e-05
-5.7148e-05
-4.6288e-05
-3.79883e-05
-3.16359e-05
-2.67557e-05
-2.29836e-05
-2.00426e-05
-1.77231e-05
-1.58676e-05
-1.43579e-05
-1.31057e-05
-1.20457e-05
-1.11297e-05
-1.03222e-05
-9.59656e-06
-8.93293e-06
-8.31607e-06
-7.73456e-06
-7.18013e-06
-6.64706e-06
-6.13145e-06
-5.63051e-06
-5.14202e-06
-4.66404e-06
-4.19498e-06
-3.73368e-06
-3.27959e-06
-2.83266e-06
-2.39315e-06
-1.96126e-06
-1.53679e-06
-1.11912e-06
-7.05583e-07
-3.13256e-07
0.000728801
0.00072861
0.000728115
0.000727291
0.000726079
0.000724366
0.000721988
0.000718729
0.000714294
0.000708293
0.000700205
0.000689347
0.000674834
0.000655532
0.000630016
0.000596526
0.00055295
0.000496836
0.00042548
0.000336104
0.00022619
9.3984e-05
-6.07876e-05
-0.000236054
-0.000426507
-0.000622948
-0.000812284
-0.000978611
-0.00110564
-0.00118024
-0.00119605
-0.00115563
-0.00106978
-0.000954221
-0.000825188
-0.00069592
-0.00057527
-0.000468034
-0.000376052
-0.000299285
-0.000236598
-0.000186294
-0.000146481
-0.000115309
-9.11066e-05
-7.24322e-05
-5.80855e-05
-4.70903e-05
-3.86679e-05
-3.22066e-05
-2.72315e-05
-2.33778e-05
-2.03674e-05
-1.79896e-05
-1.60854e-05
-1.45353e-05
-1.32501e-05
-1.21632e-05
-1.12255e-05
-1.04005e-05
-9.66106e-06
-8.98658e-06
-8.36131e-06
-7.77339e-06
-7.2142e-06
-6.6777e-06
-6.15975e-06
-5.65734e-06
-5.16808e-06
-4.68992e-06
-4.22112e-06
-3.76044e-06
-3.30723e-06
-2.86136e-06
-2.423e-06
-1.99227e-06
-1.56891e-06
-1.15208e-06
-7.3817e-07
-3.41175e-07
0.000728404
0.000728196
0.000727658
0.000726766
0.000725461
0.000723626
0.000721095
0.000717645
0.000712981
0.000706707
0.000698298
0.000687072
0.000672143
0.000652384
0.000626381
0.000592397
0.000548354
0.000491851
0.000420253
0.000330874
0.000221301
8.99008e-05
-6.34914e-05
-0.000236733
-0.000424521
-0.000617788
-0.000803731
-0.000966888
-0.00109151
-0.00116493
-0.00118107
-0.00114238
-0.00105926
-0.000946859
-0.000820862
-0.000694169
-0.000575496
-0.000469651
-0.000378555
-0.000302273
-0.000239771
-0.000189442
-0.000149466
-0.000118052
-9.35675e-05
-7.46002e-05
-5.99681e-05
-4.87063e-05
-4.00421e-05
-3.33661e-05
-2.82037e-05
-2.41886e-05
-2.10406e-05
-1.85464e-05
-1.65446e-05
-1.4913e-05
-1.356e-05
-1.2417e-05
-1.14328e-05
-1.05695e-05
-9.79832e-06
-9.09754e-06
-8.45043e-06
-7.84432e-06
-7.26988e-06
-6.72052e-06
-6.1916e-06
-5.67976e-06
-5.1823e-06
-4.69693e-06
-4.22174e-06
-3.75535e-06
-3.29693e-06
-2.84623e-06
-2.4033e-06
-1.96816e-06
-1.54053e-06
-1.11974e-06
-7.03338e-07
-3.09567e-07
0.00072776
0.000727526
0.000726924
0.000725931
0.000724485
0.000722467
0.000719705
0.000715973
0.000710966
0.000704284
0.000695399
0.000683624
0.000668079
0.000647643
0.000620923
0.000586212
0.000541484
0.000484414
0.000412467
0.000323089
0.000214024
8.38073e-05
-6.75717e-05
-0.000237872
-0.000421809
-0.000610511
-0.000791593
-0.000950231
-0.00107142
-0.00114319
-0.00115979
-0.00112356
-0.0010443
-0.000936366
-0.000814684
-0.000691667
-0.00057583
-0.000471989
-0.000382178
-0.000306603
-0.000244375
-0.000194013
-0.000153805
-0.000122039
-9.71451e-05
-7.77511e-05
-6.27025e-05
-5.1051e-05
-4.20329e-05
-3.50427e-05
-2.96062e-05
-2.53551e-05
-2.20063e-05
-1.93429e-05
-1.71995e-05
-1.54504e-05
-1.40005e-05
-1.27781e-05
-1.17291e-05
-1.08132e-05
-9.99951e-06
-9.26459e-06
-8.59023e-06
-7.96252e-06
-7.37111e-06
-6.8085e-06
-6.26933e-06
-5.74962e-06
-5.24622e-06
-4.75645e-06
-4.27813e-06
-3.80958e-06
-3.34976e-06
-2.89816e-06
-2.45464e-06
-2.01905e-06
-1.59095e-06
-1.16939e-06
-7.50644e-07
-3.48825e-07
0.000726887
0.00072662
0.000725934
0.000724807
0.000723178
0.000720922
0.00071786
0.000713758
0.000708306
0.000701095
0.000691592
0.00067911
0.000662769
0.000641463
0.000613822
0.000578184
0.000532589
0.000474808
0.000402438
0.000313091
0.000204709
7.60358e-05
-7.27499e-05
-0.000239295
-0.000418349
-0.000601299
-0.000776295
-0.000929302
-0.00104625
-0.00111596
-0.00113314
-0.00109994
-0.00102548
-0.000923083
-0.000806788
-0.000688392
-0.000576149
-0.00047487
-0.000386717
-0.000312071
-0.000250218
-0.000199837
-0.000159349
-0.000127149
-0.00010174
-8.18067e-05
-6.62287e-05
-5.40799e-05
-4.4609e-05
-3.72157e-05
-3.14264e-05
-2.68709e-05
-2.32623e-05
-2.0379e-05
-1.80511e-05
-1.6148e-05
-1.45702e-05
-1.3242e-05
-1.21059e-05
-1.11182e-05
-1.02455e-05
-9.46207e-06
-8.74785e-06
-8.08739e-06
-7.46902e-06
-6.88413e-06
-6.32641e-06
-5.79114e-06
-5.27458e-06
-4.77361e-06
-4.28567e-06
-3.80877e-06
-3.34158e-06
-2.88335e-06
-2.43367e-06
-1.99224e-06
-1.55854e-06
-1.13182e-06
-7.09701e-07
-3.11321e-07
0.000725809
0.000725502
0.000724715
0.000723427
0.000721577
0.000719034
0.000715611
0.000711064
0.000705077
0.000697231
0.00068699
0.000673661
0.000656373
0.000634035
0.000605307
0.000568582
0.000521978
0.000463384
0.000390553
0.000301292
0.000193771
6.6976e-05
-7.87073e-05
-0.000240809
-0.000414137
-0.000590394
-0.000758358
-0.000904903
-0.001017
-0.00108439
-0.00110223
-0.00107248
-0.00100347
-0.000907427
-0.000797349
-0.000684331
-0.000576313
-0.00047808
-0.000391924
-0.000318418
-0.000257048
-0.000206679
-0.000165887
-0.000133191
-0.000107187
-8.66227e-05
-7.04219e-05
-5.76858e-05
-4.76783e-05
-3.98062e-05
-3.35974e-05
-2.86797e-05
-2.47619e-05
-2.16173e-05
-1.90703e-05
-1.6985e-05
-1.52565e-05
-1.38044e-05
-1.25668e-05
-1.14965e-05
-1.05567e-05
-9.7191e-06
-8.96134e-06
-8.26609e-06
-7.62009e-06
-7.01335e-06
-6.43842e-06
-5.88965e-06
-5.36256e-06
-4.85346e-06
-4.3593e-06
-3.87771e-06
-3.40699e-06
-2.94603e-06
-2.49416e-06
-2.05083e-06
-1.6153e-06
-1.18653e-06
-7.60796e-07
-3.53006e-07
0.000724556
0.000724203
0.0007233
0.000721828
0.000719725
0.000716853
0.000713017
0.000707965
0.000701367
0.000692801
0.000681721
0.000667436
0.00064908
0.000625583
0.000595642
0.000557711
0.000510003
0.000450537
0.000377243
0.000288144
0.000181663
5.70409e-05
-8.51179e-05
-0.000242235
-0.000409203
-0.000578093
-0.000738375
-0.000877909
-0.000984773
-0.00104967
-0.00106821
-0.00104218
-0.000979036
-0.000889878
-0.000786591
-0.000679509
-0.000576206
-0.000481414
-0.000397546
-0.000325376
-0.000264604
-0.000214296
-0.000173202
-0.000139978
-0.000113324
-9.20635e-05
-7.51698e-05
-6.17764e-05
-5.11657e-05
-4.27534e-05
-3.60698e-05
-3.07409e-05
-2.64711e-05
-2.30281e-05
-2.02301e-05
-1.79351e-05
-1.60325e-05
-1.44364e-05
-1.30802e-05
-1.19123e-05
-1.08925e-05
-9.98921e-06
-9.17776e-06
-8.43862e-06
-7.75672e-06
-7.12054e-06
-6.52138e-06
-5.95252e-06
-5.40867e-06
-4.88548e-06
-4.37942e-06
-3.88764e-06
-3.40807e-06
-2.93924e-06
-2.48018e-06
-2.03009e-06
-1.58813e-06
-1.15341e-06
-7.23462e-07
-3.18002e-07
0.00072316
0.000722757
0.000721727
0.000720052
0.000717671
0.000714439
0.00071015
0.000704542
0.000697278
0.000687925
0.000675932
0.000660609
0.000641098
0.000616353
0.000585114
0.000545905
0.000497041
0.000436686
0.000362959
0.000274115
0.00016884
4.66359e-05
-9.16763e-05
-0.000243425
-0.000403618
-0.000564732
-0.000716974
-0.000849221
-0.00095068
-0.001013
-0.00103227
-0.00101004
-0.000952963
-0.000870952
-0.000774782
-0.000673987
-0.000575738
-0.000484682
-0.00040334
-0.000332677
-0.000272615
-0.00022243
-0.000181054
-0.000147294
-0.000119962
-9.79643e-05
-8.0331e-05
-6.62316e-05
-5.49701e-05
-4.5973e-05
-3.87741e-05
-3.29981e-05
-2.83452e-05
-2.45773e-05
-2.15062e-05
-1.89832e-05
-1.68917e-05
-1.51398e-05
-1.36558e-05
-1.23834e-05
-1.12786e-05
-1.03065e-05
-9.43942e-06
-8.65561e-06
-7.93801e-06
-7.2734e-06
-6.65165e-06
-6.0649e-06
-5.50692e-06
-4.97262e-06
-4.45788e-06
-3.95934e-06
-3.47448e-06
-3.00144e-06
-2.53888e-06
-2.08573e-06
-1.64091e-06
-1.20324e-06
-7.69097e-07
-3.54584e-07
0.00072166
0.000721203
0.000720037
0.000718147
0.00071547
0.000711854
0.000707084
0.000700888
0.000692918
0.000682733
0.000669779
0.000653365
0.000632647
0.000606604
0.000574025
0.000533506
0.000483477
0.000422253
0.000348148
0.00025966
0.000155734
3.6134e-05
-9.81176e-05
-0.000244277
-0.000397495
-0.000550679
-0.000694789
-0.000819719
-0.000915777
-0.000975535
-0.000995512
-0.000977062
-0.000926021
-0.000851184
-0.000762223
-0.000667868
-0.000574861
-0.000487731
-0.000409085
-0.000340069
-0.00028082
-0.000230825
-0.000189207
-0.000154925
-0.000126912
-0.000104162
-8.57652e-05
-7.09324e-05
-5.89911e-05
-4.93806e-05
-4.16393e-05
-3.53913e-05
-3.03328e-05
-2.62201e-05
-2.28583e-05
-2.00922e-05
-1.77983e-05
-1.5879e-05
-1.4257e-05
-1.28713e-05
-1.16735e-05
-1.06253e-05
-9.69617e-06
-8.86174e-06
-8.10287e-06
-7.4046e-06
-6.75531e-06
-6.1459e-06
-5.56919e-06
-5.01931e-06
-4.4915e-06
-3.98192e-06