/*--------------------------------*- C++ -*----------------------------------*\
| =========                 |                                                 |
| \\      /  F ield         | OpenFOAM: The Open Source CFD Toolbox           |
|  \\    /   O peration     | Version:  2512                                  |
|   \\  /    A nd           | Website:  www.openfoam.com                      |
|    \\/     M anipulation  |                                                 |
\*---------------------------------------------------------------------------*/
FoamFile
{
    version     2.0;
    format      ascii;
    arch        "LSB;label=32;scalar=64";
    class       volScalarField;
    location    "100";
    object      p;
}
// * * * * * * * * * * * * * * * * * * * * * * * * * * * * * * * * * * * * * //

dimensions      [0 2 -2 0 0 0 0];

internalField   nonuniform List<scalar> 
220594
(
6.95249e-05
6.94196e-05
6.91528e-05
6.87235e-05
6.81235e-05
6.73274e-05
6.63e-05
6.49992e-05
6.33761e-05
6.13732e-05
5.89241e-05
5.59539e-05
5.238e-05
4.81142e-05
4.30658e-05
3.7147e-05
3.02792e-05
2.24021e-05
1.34843e-05
3.53937e-06
-7.35948e-06
-1.90653e-05
-3.1347e-05
-4.38865e-05
-5.62807e-05
-6.80611e-05
-7.87226e-05
-8.77694e-05
-9.47685e-05
-9.9403e-05
-0.000101515
-0.000101125
-9.84303e-05
-9.37713e-05
-8.75816e-05
-8.03317e-05
-7.24771e-05
-6.44204e-05
-5.64892e-05
-4.89297e-05
-4.19101e-05
-3.55308e-05
-2.9837e-05
-2.48319e-05
-2.0489e-05
-1.6762e-05
-1.35941e-05
-1.09235e-05
-8.6885e-06
-6.83044e-06
-5.29529e-06
-4.03482e-06
-3.00689e-06
-2.17537e-06
-1.50967e-06
-9.84062e-07
-5.76859e-07
-2.69659e-07
-4.66765e-08
1.05773e-07
1.99654e-07
2.45541e-07
2.52891e-07
2.30307e-07
1.85725e-07
1.26534e-07
5.9571e-08
-8.96165e-09
-7.36649e-08
-1.30101e-07
-1.74964e-07
-2.0617e-07
-2.22902e-07
-2.25543e-07
-2.15544e-07
-1.95168e-07
-1.67144e-07
-1.34285e-07
-9.84692e-08
-7.11044e-08
6.95557e-05
6.94513e-05
6.91871e-05
6.87619e-05
6.81675e-05
6.73786e-05
6.63601e-05
6.50703e-05
6.346e-05
6.14719e-05
5.90396e-05
5.60878e-05
5.25335e-05
4.82879e-05
4.3259e-05
3.73573e-05
3.05022e-05
2.26305e-05
1.37082e-05
3.74558e-06
-7.18718e-06
-1.89454e-05
-3.12994e-05
-4.3929e-05
-5.64274e-05
-6.83186e-05
-7.90876e-05
-8.82271e-05
-9.5293e-05
-9.99598e-05
-0.000102065
-0.000101631
-9.88624e-05
-9.41093e-05
-8.78177e-05
-8.04688e-05
-7.25264e-05
-6.43974e-05
-5.64115e-05
-4.8814e-05
-4.17714e-05
-3.53813e-05
-2.96862e-05
-2.46864e-05
-2.03532e-05
-1.66386e-05
-1.34842e-05
-1.08273e-05
-8.60558e-06
-6.75991e-06
-5.23605e-06
-3.98563e-06
-2.96649e-06
-2.14254e-06
-1.48328e-06
-9.63083e-07
-5.60367e-07
-2.56806e-07
-3.66856e-08
1.13619e-07
2.05999e-07
2.5095e-07
2.57828e-07
2.35136e-07
1.90694e-07
1.3179e-07
6.51567e-08
-3.08814e-09
-6.7624e-08
-1.24067e-07
-1.69148e-07
-2.00793e-07
-2.18176e-07
-2.21644e-07
-2.1259e-07
-1.93206e-07
-1.66133e-07
-1.34083e-07
-9.88154e-08
-7.09728e-08
6.96163e-05
6.95139e-05
6.92549e-05
6.88378e-05
6.82545e-05
6.74799e-05
6.64791e-05
6.52107e-05
6.36258e-05
6.16671e-05
5.92678e-05
5.63525e-05
5.28373e-05
4.86316e-05
4.36414e-05
3.7774e-05
3.09444e-05
2.30842e-05
1.41536e-05
4.15663e-06
-6.84272e-06
-1.87047e-05
-3.12013e-05
-4.401e-05
-5.67157e-05
-6.88277e-05
-7.98114e-05
-8.91367e-05
-9.63368e-05
-0.000101068
-0.000103161
-0.00010264
-9.97223e-05
-9.47812e-05
-8.82862e-05
-8.07401e-05
-7.26227e-05
-6.43505e-05
-5.6256e-05
-4.85836e-05
-4.14957e-05
-3.50844e-05
-2.93867e-05
-2.43978e-05
-2.0084e-05
-1.63939e-05
-1.32662e-05
-1.06365e-05
-8.44104e-06
-6.61986e-06
-5.11826e-06
-3.88765e-06
-2.88584e-06
-2.07683e-06
-1.43031e-06
-9.20872e-07
-5.27122e-07
-2.30893e-07
-1.65946e-08
1.2928e-07
2.18493e-07
2.61382e-07
2.67121e-07
2.44011e-07
1.99667e-07
1.41177e-07
7.5089e-08
7.35775e-09
-5.68353e-08
-1.1321e-07
-1.58567e-07
-1.90857e-07
-2.09242e-07
-2.14014e-07
-2.06474e-07
-1.88687e-07
-1.63153e-07
-1.32423e-07
-9.80836e-08
-7.03994e-08
6.97054e-05
6.9606e-05
6.93546e-05
6.89495e-05
6.83825e-05
6.76289e-05
6.66543e-05
6.54175e-05
6.387e-05
6.19545e-05
5.96042e-05
5.67429e-05
5.32854e-05
4.91391e-05
4.42067e-05
3.83906e-05
3.15997e-05
2.37578e-05
1.48163e-05
4.76982e-06
-6.32698e-06
-1.83416e-05
-3.10494e-05
-4.41239e-05
-5.71383e-05
-6.95803e-05
-8.08859e-05
-9.04901e-05
-9.7892e-05
-0.000102721
-0.000104794
-0.000104141
-0.000101001
-9.57772e-05
-8.89774e-05
-8.1137e-05
-7.27594e-05
-6.42748e-05
-5.60202e-05
-4.82379e-05
-4.10838e-05
-3.46424e-05
-2.89419e-05
-2.39696e-05
-1.96852e-05
-1.60318e-05
-1.29441e-05
-1.03547e-05
-8.19806e-06
-6.41307e-06
-4.94433e-06
-3.74292e-06
-2.76663e-06
-1.97964e-06
-1.35193e-06
-8.58398e-07
-4.77958e-07
-1.92658e-07
1.29122e-08
1.52102e-07
2.3648e-07
2.76163e-07
2.80047e-07
2.56145e-07
2.1177e-07
1.53731e-07
8.83072e-08
2.12296e-08
-4.25166e-08
-9.87976e-08
-1.44513e-07
-1.77659e-07
-1.97385e-07
-2.03914e-07
-1.9843e-07
-1.82838e-07
-1.59445e-07
-1.30601e-07
-9.76787e-08
-7.06034e-08
6.98208e-05
6.97254e-05
6.94837e-05
6.90941e-05
6.85483e-05
6.78221e-05
6.68814e-05
6.56857e-05
6.41869e-05
6.23277e-05
6.00413e-05
5.72507e-05
5.38689e-05
4.98007e-05
4.49446e-05
3.91968e-05
3.2458e-05
2.46421e-05
1.56889e-05
5.58011e-06
-5.64199e-06
-1.78549e-05
-3.08383e-05
-4.4262e-05
-5.76835e-05
-7.05628e-05
-8.22962e-05
-9.22722e-05
-9.99436e-05
-0.000104904
-0.000106951
-0.000106121
-0.000102681
-9.70814e-05
-8.98769e-05
-8.16472e-05
-7.29272e-05
-6.41647e-05
-5.57019e-05
-4.77775e-05
-4.05392e-05
-3.40603e-05
-2.83579e-05
-2.34087e-05
-1.91638e-05
-1.55591e-05
-1.2524e-05
-9.98761e-06
-7.88189e-06
-6.14419e-06
-4.71827e-06
-3.55484e-06
-2.6117e-06
-1.85327e-06
-1.24996e-06
-7.77099e-07
-4.1396e-07
-1.42883e-07
5.13239e-08
1.818e-07
2.59875e-07
2.95362e-07
2.96806e-07
2.71837e-07
2.27386e-07
1.69899e-07
1.05331e-07
3.9128e-08
-2.39614e-08
-7.99875e-08
-1.25974e-07
-1.59978e-07
-1.81142e-07
-1.89616e-07
-1.86448e-07
-1.73356e-07
-1.52436e-07
-1.25819e-07
-9.47093e-08
-6.89687e-08
6.99598e-05
6.9869e-05
6.96392e-05
6.92684e-05
6.87482e-05
6.80549e-05
6.71553e-05
6.60093e-05
6.45694e-05
6.27786e-05
6.05699e-05
5.78653e-05
5.45761e-05
5.06037e-05
4.58415e-05
4.01787e-05
3.3506e-05
2.57251e-05
1.67612e-05
6.58021e-06
-4.79114e-06
-1.72432e-05
-3.05621e-05
-4.44132e-05
-5.83363e-05
-7.17568e-05
-8.40223e-05
-9.44624e-05
-0.000102471
-0.000107595
-0.000109609
-0.000108557
-0.000104743
-9.86731e-05
-9.09659e-05
-8.22552e-05
-7.3115e-05
-6.40136e-05
-5.52989e-05
-4.72044e-05
-3.98666e-05
-3.33451e-05
-2.7643e-05
-2.27243e-05
-1.8529e-05
-1.49847e-05
-1.20145e-05
-9.54298e-06
-7.49938e-06
-5.81922e-06
-4.44526e-06
-3.32781e-06
-2.4247e-06
-1.70074e-06
-1.12684e-06
-6.789e-07
-3.36645e-07
-8.27592e-08
9.76844e-08
2.17577e-07
2.87948e-07
3.18239e-07
3.1656e-07
2.90077e-07
2.4526e-07
1.88132e-07
1.24275e-07
5.88127e-08
-3.77102e-09
-5.97295e-08
-1.06225e-07
-1.4138e-07
-1.64332e-07
-1.7515e-07
-1.74733e-07
-1.64599e-07
-1.46608e-07
-1.22654e-07
-9.37028e-08
-6.93053e-08
7.01188e-05
7.00334e-05
6.98172e-05
6.94679e-05
6.89771e-05
6.83218e-05
6.74694e-05
6.63808e-05
6.50088e-05
6.32971e-05
6.11782e-05
5.85735e-05
5.53921e-05
5.15319e-05
4.68804e-05
4.13186e-05
3.4726e-05
2.69899e-05
1.80187e-05
7.75917e-06
-3.78072e-06
-1.65072e-05
-3.02148e-05
-4.45656e-05
-5.90786e-05
-7.31399e-05
-8.60384e-05
-9.7033e-05
-0.000105446
-0.000110766
-0.000112739
-0.000111419
-0.000107156
-0.000100525
-9.22202e-05
-8.29418e-05
-7.33094e-05
-6.38144e-05
-5.48098e-05
-4.65218e-05
-3.9073e-05
-3.25064e-05
-2.68083e-05
-2.19279e-05
-1.77926e-05
-1.43199e-05
-1.14259e-05
-9.03029e-06
-7.05895e-06
-5.44548e-06
-4.13153e-06
-3.06701e-06
-2.20985e-06
-1.52533e-06
-9.85037e-07
-5.65529e-07
-2.47084e-07
-1.27786e-08
1.52017e-07
2.59904e-07
3.21562e-07
3.45988e-07
3.40781e-07
3.12563e-07
2.67281e-07
2.10483e-07
1.47339e-07
8.26285e-08
2.05583e-08
-3.53388e-08
-8.2368e-08
-1.18721e-07
-1.43526e-07
-1.56765e-07
-1.59184e-07
-1.52092e-07
-1.37118e-07
-1.15928e-07
-8.93356e-08
-6.69003e-08
7.02941e-05
7.02146e-05
7.00134e-05
6.96879e-05
6.92297e-05
6.86164e-05
6.78163e-05
6.67913e-05
6.54949e-05
6.38712e-05
6.18527e-05
5.93598e-05
5.62997e-05
5.25661e-05
4.80406e-05
4.25949e-05
3.60962e-05
2.84158e-05
1.94427e-05
9.102e-06
-2.62042e-06
-1.56497e-05
-2.97917e-05
-4.47058e-05
-5.98894e-05
-7.46839e-05
-8.83112e-05
-9.99474e-05
-0.000108829
-0.000114377
-0.000116303
-0.000114671
-0.000109884
-0.000102603
-9.36114e-05
-8.36855e-05
-7.34963e-05
-6.35606e-05
-5.42348e-05
-4.57356e-05
-3.81683e-05
-3.15567e-05
-2.5868e-05
-2.10343e-05
-1.69688e-05
-1.35782e-05
-1.07707e-05
-8.46065e-06
-6.57042e-06
-5.03151e-06
-3.78444e-06
-2.77869e-06
-1.97239e-06
-1.33145e-06
-8.28271e-07
-4.40178e-07
-1.48079e-07
6.45109e-08
2.119e-07
3.06371e-07
3.58205e-07
3.75899e-07
3.66469e-07
3.35935e-07
2.89669e-07
2.32712e-07
1.69807e-07
1.05385e-07
4.33756e-08
-1.28972e-08
-6.08749e-08
-9.88113e-08
-1.25816e-07
-1.41778e-07
-1.47282e-07
-1.43429e-07
-1.31615e-07
-1.13272e-07
-8.89654e-08
-6.78931e-08
7.04811e-05
7.0408e-05
7.02229e-05
6.9923e-05
6.94997e-05
6.89315e-05
6.81877e-05
6.72311e-05
6.60162e-05
6.44876e-05
6.25779e-05
6.02066e-05
5.72786e-05
5.3684e-05
4.92977e-05
4.39818e-05
3.75902e-05
2.99768e-05
2.10093e-05
1.05886e-05
-1.32454e-06
-1.46775e-05
-2.92901e-05
-4.4821e-05
-6.07455e-05
-7.63563e-05
-9.08004e-05
-0.000103159
-0.000112572
-0.000118378
-0.000120249
-0.000118261
-0.000112882
-0.000104868
-9.51069e-05
-8.44625e-05
-7.3662e-05
-6.32472e-05
-5.35769e-05
-4.48545e-05
-3.71657e-05
-3.0512e-05
-2.48392e-05
-2.00607e-05
-1.60744e-05
-1.27753e-05
-1.00631e-05
-7.84667e-06
-6.04476e-06
-4.58667e-06
-3.41176e-06
-2.46916e-06
-1.7173e-06
-1.12284e-06
-6.59134e-07
-3.04409e-07
-4.0266e-08
1.49314e-07
2.78301e-07
3.58634e-07
4.00157e-07
4.10806e-07
3.96956e-07
3.63966e-07
3.16599e-07
2.59369e-07
1.96588e-07
1.3234e-07
7.02847e-08
1.35468e-08
-3.54465e-08
-7.50055e-08
-1.04216e-07
-1.22871e-07
-1.31392e-07
-1.30678e-07
-1.21905e-07
-1.06307e-07
-8.43303e-08
-6.52502e-08
7.06754e-05
7.0609e-05
7.04406e-05
7.01674e-05
6.97806e-05
6.92595e-05
6.85746e-05
6.76897e-05
6.65604e-05
6.51317e-05
6.33367e-05
6.1094e-05
5.83067e-05
5.48605e-05
5.06241e-05
4.54497e-05
3.9177e-05
3.16419e-05
2.2689e-05
1.21931e-05
8.70317e-08
-1.36019e-05
-2.87107e-05
-4.48996e-05
-6.16219e-05
-7.81193e-05
-9.3457e-05
-0.000106612
-0.000116612
-0.000122704
-0.000124513
-0.000122128
-0.000116092
-0.000107271
-9.66701e-05
-8.52485e-05
-7.37936e-05
-6.28724e-05
-5.28426e-05
-4.38918e-05
-3.60826e-05
-2.93919e-05
-2.37426e-05
-1.90277e-05
-1.5129e-05
-1.19292e-05
-9.31953e-06
-7.20296e-06
-5.49482e-06
-4.1222e-06
-3.02334e-06
-2.14705e-06
-1.45217e-06
-9.06276e-07
-4.838e-07
-1.63983e-07
7.08466e-08
2.36232e-07
3.45806e-07
4.11159e-07
4.41662e-07
4.44646e-07
4.25797e-07
3.89784e-07
3.40745e-07
2.82671e-07
2.19459e-07
1.54871e-07
9.23175e-08
3.47351e-08
-1.55711e-08
-5.69649e-08
-8.8509e-08
-1.09899e-07
-1.21402e-07
-1.23723e-07
-1.17834e-07
-1.04765e-07
-8.47472e-08
-6.67403e-08
7.08721e-05
7.08124e-05
7.06611e-05
7.0415e-05
7.00653e-05
6.95922e-05
6.89674e-05
6.81558e-05
6.7114e-05
6.57879e-05
6.41109e-05
6.2001e-05
5.93594e-05
5.60681e-05
5.19892e-05
4.69649e-05
4.08212e-05
3.33747e-05
2.44465e-05
1.38833e-05
1.588e-06
-1.24404e-05
-2.8059e-05
-4.49324e-05
-6.24934e-05
-7.99311e-05
-9.6224e-05
-0.000110235
-0.00012087
-0.000127272
-0.000129013
-0.000126198
-0.00011945
-0.00010976
-9.82622e-05
-8.60194e-05
-7.38812e-05
-6.2438e-05
-5.20432e-05
-4.2865e-05
-3.49406e-05
-2.82202e-05
-2.26021e-05
-1.79584e-05
-1.41541e-05
-1.10594e-05
-8.55697e-06
-6.54421e-06
-4.93296e-06
-3.64825e-06
-2.6272e-06
-1.81842e-06
-1.18129e-06
-6.8442e-07
-3.03478e-07
-1.87785e-08
1.86589e-07
3.27708e-07
4.17886e-07
4.68354e-07
4.87976e-07
4.83431e-07
4.59669e-07
4.20641e-07
3.69857e-07
3.10809e-07
2.4701e-07
1.81934e-07
1.18769e-07
6.02819e-08
8.65948e-09
-3.45188e-08
-6.83004e-08
-9.22964e-08
-1.06632e-07
-1.11836e-07
-1.08699e-07
-9.80936e-08
-8.01792e-08
-6.40818e-08
7.10662e-05
7.10132e-05
7.08789e-05
7.06596e-05
7.03469e-05
6.99215e-05
6.93564e-05
6.86178e-05
6.76634e-05
6.644e-05
6.48813e-05
6.29052e-05
6.04109e-05
5.7277e-05
5.33595e-05
4.84909e-05
4.24832e-05
3.51341e-05
2.62406e-05
1.56205e-05
3.14509e-06
-1.1217e-05
-2.73461e-05
-4.49139e-05
-6.33352e-05
-8.17466e-05
-9.90367e-05
-0.000113948
-0.000125253
-0.000131985
-0.000133654
-0.000130381
-0.000122879
-0.000112275
-9.98422e-05
-8.67527e-05
-7.39186e-05
-6.19509e-05
-5.11951e-05
-4.17971e-05
-3.37661e-05
-2.70246e-05
-2.14455e-05
-1.68792e-05
-1.3174e-05
-1.01879e-05
-7.7952e-06
-5.88795e-06
-4.37474e-06
-3.17861e-06
-2.23568e-06
-1.49444e-06
-9.14889e-07
-4.66844e-07
-1.27306e-07
1.22294e-07
2.9813e-07
4.14873e-07
4.8555e-07
5.21041e-07
5.29685e-07
5.17465e-07
4.88562e-07
4.46194e-07
3.93262e-07
3.32796e-07
2.6798e-07
2.02051e-07
1.38014e-07
7.84899e-08
2.55512e-08
-1.92885e-08
-5.50797e-08
-8.13723e-08
-9.81752e-08
-1.0587e-07
-1.05087e-07
-9.65473e-08
-8.02598e-08
-6.51861e-08
7.12529e-05
7.12063e-05
7.10884e-05
7.08952e-05
7.06181e-05
7.02389e-05
6.97319e-05
6.90642e-05
6.81947e-05
6.70715e-05
6.56285e-05
6.37835e-05
6.14344e-05
5.84565e-05
5.47e-05
4.99884e-05
4.41201e-05
3.68746e-05
2.80248e-05
1.73596e-05
4.71808e-06
-9.96315e-06
-2.65898e-05
-4.4844e-05
-6.41248e-05
-8.35183e-05
-0.000101823
-0.000117657
-0.000129654
-0.000136727
-0.00013832
-0.000134574
-0.000126294
-0.000114752
-0.000101369
-8.74288e-05
-7.39043e-05
-6.14235e-05
-5.03204e-05
-4.07157e-05
-3.25897e-05
-2.58361e-05
-2.03022e-05
-1.58174e-05
-1.22132e-05
-9.33602e-06
-7.05221e-06
-5.24902e-06
-3.83202e-06
-2.7224e-06
-1.85536e-06
-1.17932e-06
-6.55102e-07
-2.53814e-07
4.61159e-08
2.62118e-07
4.09676e-07
5.03119e-07
5.55254e-07
5.76632e-07
5.75046e-07
5.55743e-07
5.22098e-07
4.76586e-07
4.21516e-07
3.59507e-07
2.93476e-07
2.26483e-07
1.61406e-07
1.00745e-07
4.64716e-08
2.28744e-11
-3.76758e-08
-6.61416e-08
-8.52982e-08
-9.54085e-08
-9.69763e-08
-9.061e-08
-7.62772e-08
-6.30798e-08
7.14274e-05
7.1387e-05
7.12844e-05
7.11157e-05
7.08722e-05
7.05366e-05
7.00841e-05
6.94834e-05
6.86944e-05
6.7666e-05
6.6333e-05
6.4613e-05
6.24028e-05
5.95751e-05
5.59745e-05
5.14164e-05
4.56867e-05
3.85472e-05
2.97481e-05
1.90502e-05
6.26036e-06
-8.71712e-06
-2.58149e-05
-4.47277e-05
-6.48427e-05
-8.51987e-05
-0.000104506
-0.000121259
-0.000133949
-0.000141365
-0.000142884
-0.00013866
-0.0001296
-0.000117124
-0.000102804
-8.80327e-05
-7.38427e-05
-6.08743e-05
-4.94467e-05
-3.96537e-05
-3.1446e-05
-2.46892e-05
-1.92053e-05
-1.48034e-05
-1.12994e-05
-8.52851e-06
-6.35015e-06
-4.64719e-06
-3.32251e-06
-2.29562e-06
-1.50086e-06
-8.86677e-07
-4.1475e-07
-5.7617e-08
2.04829e-07
3.88905e-07
5.09489e-07
5.80679e-07
6.15153e-07
6.23177e-07
6.12003e-07
5.86121e-07
5.48074e-07
4.99589e-07
4.42412e-07
3.78796e-07
3.11459e-07
2.43354e-07
1.77281e-07
1.15658e-07
6.03611e-08
1.27434e-08
-2.6322e-08
-5.63564e-08
-7.72391e-08
-8.9153e-08
-9.25077e-08
-8.78198e-08
-7.49856e-08
-6.31106e-08
7.15854e-05
7.15505e-05
7.14619e-05
7.13155e-05
7.11026e-05
7.08067e-05
7.04042e-05
6.98647e-05
6.91493e-05
6.82079e-05
6.69761e-05
6.53714e-05
6.32899e-05
6.06018e-05
5.71472e-05
5.27341e-05
4.71369e-05
4.01017e-05
3.13574e-05
2.06381e-05
7.72037e-06
-7.52314e-06
-2.50523e-05
-4.45764e-05
-6.5474e-05
-8.67414e-05
-0.000107006
-0.000124643
-0.000138004
-0.000145754
-0.000147201
-0.000142515
-0.0001327
-0.000119325
-0.000104109
-8.85538e-05
-7.37437e-05
-6.03271e-05
-4.86059e-05
-3.8647e-05
-3.03718e-05
-2.36188e-05
-1.81868e-05
-1.38656e-05
-1.04567e-05
-7.78562e-06
-5.7054e-06
-4.09523e-06
-2.85569e-06
-1.90478e-06
-1.17604e-06
-6.18009e-07
-1.93297e-07
1.24078e-07
3.52737e-07
5.07932e-07
6.04032e-07
6.55022e-07
6.73547e-07
6.69655e-07
6.50076e-07
6.18538e-07
5.76746e-07
5.25685e-07
4.66559e-07
4.01309e-07
3.32516e-07
2.63092e-07
1.95819e-07
1.33071e-07
7.66522e-08
2.78277e-08
-1.25998e-08
-4.41862e-08
-6.68011e-08
-8.05823e-08
-8.58747e-08
-8.31299e-08
-7.22081e-08
-6.22132e-08
7.17227e-05
7.16926e-05
7.16164e-05
7.14895e-05
7.13034e-05
7.10423e-05
7.06836e-05
7.01979e-05
6.95473e-05
6.86827e-05
6.75403e-05
6.60378e-05
6.40707e-05
6.15071e-05
5.81837e-05
5.39016e-05
4.84258e-05
4.14881e-05
3.27986e-05
2.20677e-05
9.04394e-06
-6.42933e-06
-2.43381e-05
-4.44068e-05
-6.60087e-05
-8.81036e-05
-0.000109245
-0.000127695
-0.000141679
-0.000149741
-0.000151123
-0.000146007
-0.000135492
-0.000121287
-0.000105252
-8.89874e-05
-7.36225e-05
-5.98102e-05
-4.78341e-05
-3.77345e-05
-2.94059e-05
-2.26624e-05
-1.72812e-05
-1.30353e-05
-9.7134e-06
-7.13239e-06
-5.14025e-06
-3.61309e-06
-2.44955e-06
-1.56628e-06
-8.96091e-07
-3.87593e-07
-4.35717e-09
2.78142e-07
4.77088e-07
6.06754e-07
6.81118e-07
7.14173e-07
7.18636e-07
7.04416e-07
6.77769e-07
6.41691e-07
5.97067e-07
5.44156e-07
4.8365e-07
4.17217e-07
3.47346e-07
2.76961e-07
2.08871e-07
1.45443e-07
8.84238e-08
3.8992e-08
-2.13851e-09
-3.4588e-08
-5.82517e-08
-7.32575e-08
-7.99179e-08
-7.86498e-08
-6.93153e-08
-6.11311e-08
7.18358e-05
7.18098e-05
7.17438e-05
7.16331e-05
7.14694e-05
7.12373e-05
7.09151e-05
7.04743e-05
6.98779e-05
6.90775e-05
6.80099e-05
6.65934e-05
6.47226e-05
6.22644e-05
5.90523e-05
5.48823e-05
4.95111e-05
4.26591e-05
3.40203e-05
2.32848e-05
1.01773e-05
-5.48479e-06
-2.37107e-05
-4.42397e-05
-6.6442e-05
-8.92479e-05
-0.000111147
-0.000130307
-0.000144836
-0.000153173
-0.000154498
-0.000149006
-0.000137878
-0.00012295
-0.000106207
-8.93332e-05
-7.34978e-05
-5.93539e-05
-4.71669e-05
-3.69535e-05
-2.85846e-05
-2.18529e-05
-1.65177e-05
-1.23373e-05
-9.08986e-06
-6.58531e-06
-4.6675e-06
-3.21018e-06
-2.11047e-06
-1.28387e-06
-6.62496e-07
-1.95052e-07
1.54002e-07
4.07821e-07
5.82264e-07
6.90744e-07
7.46954e-07
7.64993e-07
7.57745e-07
7.35057e-07
7.02788e-07
6.63268e-07
6.16615e-07
5.6241e-07
5.00873e-07
4.33432e-07
3.62526e-07
2.91127e-07
2.22111e-07
1.57872e-07
1.00125e-07
4.9972e-08
8.03584e-09
-2.53818e-08
-5.02228e-08
-6.66265e-08
-7.48909e-08
-7.5402e-08
-6.79703e-08
-6.16244e-08
7.19219e-05
7.1899e-05
7.18408e-05
7.17426e-05
7.15961e-05
7.13864e-05
7.10924e-05
7.06863e-05
7.01318e-05
6.93812e-05
6.83718e-05
6.7022e-05
6.52263e-05
6.28505e-05
5.97257e-05
5.5644e-05
5.0356e-05
4.35728e-05
3.49762e-05
2.42403e-05
1.10707e-05
-4.73592e-06
-2.3208e-05
-4.40973e-05
-6.67731e-05
-9.01433e-05
-0.000112648
-0.000132377
-0.000147346
-0.000155906
-0.000157188
-0.000151391
-0.000139769
-0.00012426
-0.000106951
-8.95953e-05
-7.33904e-05
-5.89886e-05
-4.66396e-05
-3.63403e-05
-2.79429e-05
-2.1223e-05
-1.59258e-05
-1.17979e-05
-8.60954e-06
-6.16514e-06
-4.3056e-06
-2.90298e-06
-1.85325e-06
-1.07096e-06
-4.87608e-07
-5.19615e-08
2.70773e-07
5.02579e-07
6.58184e-07
7.50298e-07
7.92434e-07
7.98866e-07
7.82702e-07
7.53803e-07
7.17725e-07
6.76231e-07
6.2877e-07
5.74317e-07
5.12671e-07
4.45048e-07
3.73854e-07
3.02124e-07
2.32819e-07
1.68377e-07
1.10498e-07
6.02164e-08
1.8066e-08
-1.57384e-08
-4.11997e-08
-5.84869e-08
-6.79024e-08
-6.98289e-08
-6.41126e-08
-5.99033e-08
7.19786e-05
7.19578e-05
7.19049e-05
7.18152e-05
7.16803e-05
7.14857e-05
7.12108e-05
7.08282e-05
7.03021e-05
6.95852e-05
6.86154e-05
6.73111e-05
6.55667e-05
6.32471e-05
6.01821e-05
5.61612e-05
5.09306e-05
4.41953e-05
3.56285e-05
2.48935e-05
1.16824e-05
-4.22232e-06
-2.2863e-05
-4.40006e-05
-6.70042e-05
-9.07669e-05
-0.000113694
-0.000133823
-0.000149102
-0.00015782
-0.000159071
-0.000153061
-0.00014109
-0.000125174
-0.000107469
-8.97789e-05
-7.33191e-05
-5.87405e-05
-4.62812e-05
-3.59239e-05
-2.75077e-05
-2.07967e-05
-1.55259e-05
-1.14343e-05
-8.28622e-06
-5.88275e-06
-4.0628e-06
-2.69739e-06
-1.6817e-06
-9.29577e-07
-3.72045e-07
4.21544e-08
3.47261e-07
5.64372e-07
7.07358e-07
7.88412e-07
8.20961e-07
8.19478e-07
7.97319e-07
7.64417e-07
7.26138e-07
6.83819e-07
6.3638e-07
5.82308e-07
5.21052e-07
4.53654e-07
3.82496e-07
3.10678e-07
2.41244e-07
1.76688e-07
1.18707e-07
6.82867e-08
2.5879e-08
-8.38288e-09
-3.45644e-08
-5.28685e-08
-6.36027e-08
-6.7132e-08
-6.32378e-08
-6.08186e-08
7.20043e-05
7.19846e-05
7.19343e-05
7.18487e-05
7.17196e-05
7.15325e-05
7.12669e-05
7.08959e-05
7.03839e-05
6.96839e-05
6.87337e-05
6.7452e-05
6.57331e-05
6.34416e-05
6.04065e-05
5.64158e-05
5.12138e-05
4.45023e-05
3.59502e-05
2.52151e-05
1.19825e-05
-3.97292e-06
-2.27003e-05
-4.39655e-05
-6.7138e-05
-9.1103e-05
-0.000114249
-0.000134584
-0.000150024
-0.000158824
-0.00016006
-0.000153939
-0.000141788
-0.000125661
-0.000107752
-8.98894e-05
-7.32989e-05
-5.86298e-05
-4.61137e-05
-3.57264e-05
-2.73001e-05
-2.0593e-05
-1.53351e-05
-1.12613e-05
-8.13305e-06
-5.74972e-06
-3.94932e-06
-2.60241e-06
-1.60377e-06
-8.66808e-07
-3.22177e-07
8.14422e-08
3.78006e-07
5.88091e-07
7.25061e-07
8.00811e-07
8.28755e-07
8.23555e-07
7.98795e-07
7.6452e-07
7.26019e-07
6.84373e-07
6.38154e-07
5.85504e-07
5.25612e-07
4.59385e-07
3.89177e-07
3.18132e-07
2.49359e-07
1.85395e-07
1.27938e-07
7.793e-08
3.57537e-08
1.4676e-09
-2.50538e-08
-4.40475e-08
-5.58306e-08
-6.07673e-08
-5.86748e-08
-5.85655e-08
7.19984e-05
7.19786e-05
7.19281e-05
7.18423e-05
7.17128e-05
7.15253e-05
7.12592e-05
7.08876e-05
7.03749e-05
6.9674e-05
6.87229e-05
6.74402e-05
6.57202e-05
6.34275e-05
6.0391e-05
5.63988e-05
5.1195e-05
4.44817e-05
3.59275e-05
2.51902e-05
1.19551e-05
-4.00283e-06
-2.27329e-05
-4.40009e-05
-6.71761e-05
-9.11438e-05
-0.000114292
-0.00013463
-0.000150071
-0.000158872
-0.000160108
-0.000153986
-0.000141833
-0.000125704
-0.000107794
-8.99298e-05
-7.33376e-05
-5.86664e-05
-4.61482e-05
-3.57585e-05
-2.73299e-05
-2.06207e-05
-1.53607e-05
-1.1285e-05
-8.15492e-06
-5.76994e-06
-3.96819e-06
-2.62031e-06
-1.62106e-06
-8.83672e-07
-3.38632e-07
6.55189e-08
3.62743e-07
5.73523e-07
7.11102e-07
7.87322e-07
8.15649e-07
8.10895e-07
7.86821e-07
7.53613e-07
7.16599e-07
6.76797e-07
6.32636e-07
5.82089e-07
5.24197e-07
4.59773e-07
3.91137e-07
3.21447e-07
2.53845e-07
1.90888e-07
1.34272e-07
8.49041e-08
4.3111e-08
8.8908e-09
-1.79304e-08
-3.76149e-08
-5.04789e-08
-5.68635e-08
-5.65319e-08
-5.83745e-08
7.19608e-05
7.19398e-05
7.18865e-05
7.1796e-05
7.166e-05
7.14642e-05
7.11877e-05
7.08032e-05
7.0275e-05
6.95558e-05
6.85833e-05
6.7276e-05
6.55282e-05
6.32049e-05
6.01358e-05
5.61102e-05
5.08744e-05
4.41335e-05
3.55606e-05
2.48189e-05
1.16007e-05
-4.31169e-06
-2.29603e-05
-4.4106e-05
-6.71179e-05
-9.08886e-05
-0.000113823
-0.000133958
-0.000149242
-0.000157962
-0.000159213
-0.0001532
-0.000141225
-0.000125304
-0.000107594
-8.9899e-05
-7.34342e-05
-5.88498e-05
-4.63839e-05
-3.60196e-05
-2.75966e-05
-2.0879e-05
-1.56022e-05
-1.15048e-05
-8.35135e-06
-5.94296e-06
-4.11894e-06
-2.75056e-06
-1.73293e-06
-9.79451e-07
-4.20582e-07
-4.68813e-09
3.02502e-07
5.21815e-07
6.66782e-07
7.49436e-07
7.83361e-07
7.8346e-07
7.63614e-07
7.34155e-07
7.00569e-07
6.64003e-07
6.22961e-07
5.75426e-07
5.20408e-07
4.58666e-07
3.92475e-07
3.24967e-07
2.5927e-07
1.97936e-07
1.4265e-07
9.42901e-08
5.31468e-08
1.91775e-08
-7.82229e-09
-2.81257e-08
-4.20382e-08
-4.98799e-08
-5.14264e-08
-5.56664e-08
7.18924e-05
7.18692e-05
7.18102e-05
7.17108e-05
7.15625e-05
7.13507e-05
7.1054e-05
7.06449e-05
7.00869e-05
6.93323e-05
6.83185e-05
6.69637e-05
6.51625e-05
6.27805e-05
5.96488e-05
5.55595e-05
5.0263e-05
4.34706e-05
3.48638e-05
2.41169e-05
1.09354e-05
-4.88369e-06
-2.33688e-05
-4.42715e-05
-6.69607e-05
-9.0344e-05
-0.000112861
-0.0001326
-0.000147576
-0.00015614
-0.000157421
-0.00015162
-0.00013999
-0.000124474
-0.000107156
-8.9793e-05
-7.35798e-05
-5.91685e-05
-4.68087e-05
-3.6498e-05
-2.80893e-05
-2.13588e-05
-1.60516e-05
-1.19145e-05
-8.71728e-06
-6.26492e-06
-4.3988e-06
-2.99138e-06
-1.93849e-06
-1.15401e-06
-5.68561e-07
-1.30293e-07
1.95663e-07
4.30894e-07
5.89606e-07
6.84269e-07
7.28647e-07
7.37694e-07
7.25346e-07
7.02097e-07
6.73701e-07
6.41619e-07
6.04636e-07
5.60922e-07
5.09563e-07
4.51303e-07
3.88357e-07
3.23785e-07
2.6066e-07
2.01497e-07
1.47961e-07
1.00918e-07
6.06422e-08
2.70781e-08
1.55537e-11
-2.0809e-08
-3.56721e-08
-4.48502e-08
-4.80681e-08
-5.43215e-08
7.17949e-05
7.17684e-05
7.17013e-05
7.15888e-05
7.14226e-05
7.11875e-05
7.08617e-05
7.04167e-05
6.98154e-05
6.90095e-05
6.79359e-05
6.65124e-05
6.46339e-05
6.21672e-05
5.89455e-05
5.4765e-05
4.93822e-05
4.25173e-05
3.38644e-05
2.31138e-05
9.98999e-06
-5.68923e-06
-2.3933e-05
-4.44803e-05
-6.67008e-05
-8.95244e-05
-0.00011144
-0.000130613
-0.000145152
-0.000153494
-0.000154818
-0.00014932
-0.000138182
-0.000123244
-0.000106489
-8.9605e-05
-7.37581e-05
-5.9601e-05
-4.73994e-05
-3.71704e-05
-2.87861e-05
-2.20399e-05
-1.66912e-05
-1.24981e-05
-9.23877e-06
-6.72348e-06
-4.79676e-06
-3.33288e-06
-2.22878e-06
-1.39913e-06
-7.74892e-07
-3.03961e-07
4.93563e-08
3.07757e-07
4.86461e-07
5.9859e-07
6.58165e-07
6.80161e-07
6.78536e-07
6.6396e-07
6.42557e-07
6.16266e-07
5.84333e-07
5.45269e-07
4.98331e-07
4.44282e-07
3.8526e-07
3.24214e-07
2.64121e-07
2.07441e-07
1.55816e-07
1.10117e-07
7.06327e-08
3.73294e-08
1.0021e-08
-1.15214e-08
-2.75275e-08
-3.82215e-08
-4.32993e-08
-5.17726e-08
7.16705e-05
7.16399e-05
7.15622e-05
7.14329e-05
7.12438e-05
7.09789e-05
7.06155e-05
7.01245e-05
6.94677e-05
6.85962e-05
6.74459e-05
6.59347e-05
6.39578e-05
6.13834e-05
5.80479e-05
5.37525e-05
4.82619e-05
4.1308e-05
3.26008e-05
2.18508e-05
8.80663e-06
-6.68815e-06
-2.46192e-05
-4.47107e-05
-6.63353e-05
-8.8452e-05
-0.000109613
-0.00012808
-0.000142076
-0.000150143
-0.000151524
-0.0001464
-0.000135874
-0.000121656
-0.000105607
-8.93286e-05
-7.39491e-05
-6.01204e-05
-4.8126e-05
-3.80071e-05
-2.96595e-05
-2.28978e-05
-1.74999e-05
-1.32382e-05
-9.90174e-06
-7.3076e-06
-5.30455e-06
-3.76927e-06
-2.60025e-06
-1.7132e-06
-1.03959e-06
-5.27028e-07
-1.38837e-07
1.49057e-07
3.53157e-07
4.87428e-07
5.66229e-07
6.04573e-07
6.1643e-07
6.12679e-07
5.99899e-07
5.80639e-07
5.54754e-07
5.21215e-07
4.79525e-07
4.30492e-07
3.76166e-07
3.19351e-07
2.629e-07
2.09197e-07
1.59865e-07
1.15797e-07
7.73272e-08
4.44704e-08
1.70928e-08
-4.97876e-09
-2.19107e-08
-3.38584e-08
-4.04391e-08
-5.06258e-08
7.15222e-05
7.14866e-05
7.13964e-05
7.12471e-05
7.10305e-05
7.07299e-05
7.03218e-05
6.97758e-05
6.9053e-05
6.81033e-05
6.6862e-05
6.52469e-05
6.31537e-05
6.04525e-05
5.69836e-05
5.25544e-05
4.69396e-05
3.9885e-05
3.11195e-05
2.03775e-05
7.43547e-06
-7.83356e-06
-2.53891e-05
-4.494e-05
-6.58641e-05
-8.71569e-05
-0.000107445
-0.0001251
-0.000138475
-0.000146231
-0.000147677
-0.000142982
-0.000133153
-0.000119763
-0.000104531
-8.8959e-05
-7.41313e-05
-6.06952e-05
-4.89526e-05
-3.89711e-05
-3.06735e-05
-2.38993e-05
-1.84476e-05
-1.41081e-05
-1.06823e-05
-7.99608e-06
-5.90327e-06
-4.28365e-06
-3.03767e-06
-2.08233e-06
-1.34972e-06
-7.87219e-07
-3.57075e-07
-3.36731e-08
2.00953e-07
3.6176e-07
4.63541e-07
5.21387e-07
5.49307e-07
5.58425e-07
5.55842e-07
5.44815e-07
5.25906e-07
4.98636e-07
4.62816e-07
4.19325e-07
3.70121e-07
3.17854e-07
2.65235e-07
2.14569e-07
1.6747e-07
1.24873e-07
8.71813e-08
5.44891e-08
2.67378e-08
3.82799e-09
-1.43322e-08
-2.78264e-08
-3.6218e-08
-4.84055e-08
7.13537e-05
7.13125e-05
7.12079e-05
7.10359e-05
7.0788e-05
7.0447e-05
6.99881e-05
6.93798e-05
6.85821e-05
6.7544e-05
6.62001e-05
6.44679e-05
6.22442e-05
5.94014e-05
5.57842e-05
5.12076e-05
4.54575e-05
3.82957e-05
2.94723e-05
1.87482e-05
5.93062e-06
-9.07597e-06
-2.62037e-05
-4.51468e-05
-6.52916e-05
-8.56759e-05
-0.000105009
-0.000121782
-0.000134487
-0.000141909
-0.000143426
-0.000139193
-0.000130119
-0.000117625
-0.000103286
-8.84958e-05
-7.42855e-05
-6.12949e-05
-4.9843e-05
-4.00247e-05
-3.17918e-05
-2.50109e-05
-1.95049e-05
-1.50824e-05
-1.15597e-05
-8.77208e-06
-6.57983e-06
-4.86637e-06
-3.53447e-06
-2.50267e-06
-1.70379e-06
-1.08501e-06
-6.07488e-07
-2.44004e-07
2.49799e-08
2.15535e-07
3.42994e-07
4.22602e-07
4.68461e-07
4.91982e-07
5.00834e-07
4.99033e-07
4.87909e-07
4.6759e-07
4.38238e-07
4.00828e-07
3.5724e-07
3.09968e-07
2.61584e-07
2.14312e-07
1.69764e-07
1.2893e-07
9.22957e-08
6.00473e-08
3.22117e-08
8.76973e-09
-1.02919e-08
-2.49767e-08
-3.47393e-08
-4.82929e-08
7.11691e-05
7.11217e-05
7.10014e-05
7.08045e-05
7.05224e-05
7.01371e-05
6.96226e-05
6.89464e-05
6.80672e-05
6.69329e-05
6.54776e-05
6.36188e-05
6.12544e-05
5.82596e-05
5.44844e-05
4.9752e-05
4.38609e-05
3.65903e-05
2.77134e-05
1.7019e-05
4.34655e-06
-1.0367e-05
-2.70268e-05
-4.53143e-05
-6.46276e-05
-8.40518e-05
-0.000102384
-0.00011824
-0.000130252
-0.000137331
-0.000138923
-0.000135166
-0.00012687
-0.000115309
-0.000101906
-8.79436e-05
-7.43963e-05
-6.18907e-05
-5.07609e-05
-4.11285e-05
-3.29749e-05
-2.61951e-05
-2.06369e-05
-1.61298e-05
-1.25055e-05
-9.6104e-06
-7.31175e-06
-5.4973e-06
-4.07254e-06
-2.95772e-06
-2.0865e-06
-1.40597e-06
-8.76245e-07
-4.6853e-07
-1.61679e-07
6.15722e-08
2.17196e-07
3.20681e-07
3.86283e-07
4.25731e-07
4.47278e-07
4.55711e-07
4.53149e-07
4.40356e-07
4.17876e-07
3.86818e-07
3.49011e-07
3.06818e-07
2.62684e-07
2.18768e-07
1.76685e-07
1.37491e-07
1.01763e-07
6.97842e-08
4.16714e-08
1.74871e-08
-2.70599e-09
-1.8845e-08
-3.03469e-08
-4.58686e-08
7.09729e-05
7.09189e-05
7.0782e-05
7.05586e-05
7.02403e-05
6.9808e-05
6.92347e-05
6.84866e-05
6.75213e-05
6.62857e-05
6.47134e-05
6.2722e-05
6.02109e-05
5.70584e-05
5.31202e-05
4.82289e-05
4.2196e-05
3.48195e-05
2.58962e-05
1.52442e-05
2.73499e-06
-1.16622e-05
-2.78272e-05
-4.54309e-05
-6.38869e-05
-8.23306e-05
-9.96493e-05
-0.000114583
-0.000125904
-0.000132643
-0.000134309
-0.000131025
-0.000123506
-0.000112881
-0.000100426
-8.73129e-05
-7.44537e-05
-6.24591e-05
-5.16746e-05
-4.22468e-05
-3.41864e-05
-2.74169e-05
-2.18117e-05
-1.72218e-05
-1.34953e-05
-1.04905e-05
-8.08234e-06
-6.16337e-06
-4.6421e-06
-3.44066e-06
-2.49369e-06
-1.74826e-06
-1.16355e-06
-7.09256e-07
-3.62645e-07
-1.052e-07
7.97863e-08
2.08146e-07
2.94351e-07
3.50476e-07
3.85351e-07
4.04517e-07
4.10872e-07
4.05826e-07
3.90338e-07
3.65687e-07
3.33693e-07
2.96621e-07
2.56813e-07
2.16374e-07
1.76931e-07
1.39599e-07
1.05043e-07
7.36343e-08
4.5572e-08
2.09925e-08
2.91848e-11
-1.71822e-08
-2.99391e-08
-4.6609e-08
7.07698e-05
7.0709e-05
7.05549e-05
7.03042e-05
6.99485e-05
6.94678e-05
6.8834e-05
6.80119e-05
6.69583e-05
6.56189e-05
6.3927e-05
6.18006e-05
5.91407e-05
5.58292e-05
5.17279e-05
4.66791e-05
4.05082e-05
3.3032e-05
2.40717e-05
1.34742e-05
1.14263e-06
-1.29233e-05
-2.85801e-05
-4.54913e-05
-6.30889e-05