/*--------------------------------*- C++ -*----------------------------------*\
| =========                 |                                                 |
| \\      /  F ield         | OpenFOAM: The Open Source CFD Toolbox           |
|  \\    /   O peration     | Version:  2512                                  |
|   \\  /    A nd           | Website:  www.openfoam.com                      |
|    \\/     M anipulation  |                                                 |
\*---------------------------------------------------------------------------*/
FoamFile
{
    version     2.0;
    format      ascii;
    arch        "LSB;label=32;scalar=64";
    class       volScalarField;
    location    "100";
    object      p;
}
// * * * * * * * * * * * * * * * * * * * * * * * * * * * * * * * * * * * * * //

dimensions      [0 2 -2 0 0 0 0];

internalField   nonuniform List<scalar> 
220594
(
3.54096e-05
3.5362e-05
3.5241e-05
3.50461e-05
3.47733e-05
3.44111e-05
3.39436e-05
3.3352e-05
3.26143e-05
3.17046e-05
3.05931e-05
2.92459e-05
2.76255e-05
2.56916e-05
2.34029e-05
2.07186e-05
1.76025e-05
1.4026e-05
9.97354e-06
5.44967e-06
4.8557e-07
-4.85442e-06
-1.04682e-05
-1.62141e-05
-2.19122e-05
-2.73525e-05
-3.23075e-05
-3.65535e-05
-3.98937e-05
-4.21828e-05
-4.3346e-05
-4.3389e-05
-4.23955e-05
-4.0514e-05
-3.79354e-05
-3.48677e-05
-3.15131e-05
-2.80509e-05
-2.46277e-05
-2.13545e-05
-1.83077e-05
-1.55336e-05
-1.30541e-05
-1.08723e-05
-8.97797e-06
-7.35195e-06
-5.9702e-06
-4.80644e-06
-3.83416e-06
-3.02799e-06
-2.36447e-06
-1.82249e-06
-1.38344e-06
-1.03123e-06
-7.52018e-07
-5.33983e-07
-3.6699e-07
-2.42297e-07
-1.52329e-07
-9.05021e-08
-5.10996e-08
-2.91551e-08
-2.0356e-08
-2.09425e-08
-2.76406e-08
-3.7616e-08
-4.84763e-08
-5.8289e-08
-6.56203e-08
-6.95549e-08
-6.97031e-08
-6.61733e-08
-5.95187e-08
-5.06534e-08
-4.07521e-08
-3.11212e-08
-2.30358e-08
-1.75892e-08
-1.51758e-08
-2.0503e-08
3.54236e-05
3.53763e-05
3.52566e-05
3.50635e-05
3.47932e-05
3.44343e-05
3.39709e-05
3.33842e-05
3.26524e-05
3.17495e-05
3.06456e-05
2.93067e-05
2.76953e-05
2.57706e-05
2.34907e-05
2.08144e-05
1.77042e-05
1.41304e-05
1.00763e-05
5.54481e-06
5.65858e-07
-4.79733e-06
-1.04432e-05
-1.62293e-05
-2.19741e-05
-2.7464e-05
-3.24676e-05
-3.67556e-05
-4.01264e-05
-4.24308e-05
-4.35921e-05
-4.36165e-05
-4.25907e-05
-4.0668e-05
-3.80445e-05
-3.49329e-05
-3.15392e-05
-2.80448e-05
-2.45971e-05
-2.13068e-05
-1.82494e-05
-1.54701e-05
-1.29897e-05
-1.08099e-05
-8.91958e-06
-7.29876e-06
-5.92278e-06
-4.76489e-06
-3.79832e-06
-2.99747e-06
-2.33878e-06
-1.80107e-06
-1.36574e-06
-1.01669e-06
-7.40134e-07
-5.24305e-07
-3.59113e-07
-2.35859e-07
-1.4701e-07
-8.60158e-08
-4.72049e-08
-2.56556e-08
-1.71067e-08
-1.78464e-08
-2.4648e-08
-3.47153e-08
-4.56888e-08
-5.56581e-08
-6.32043e-08
-6.74169e-08
-6.79034e-08
-6.47599e-08
-5.85213e-08
-5.00772e-08
-4.05729e-08
-3.12841e-08
-2.34543e-08
-1.81438e-08
-1.57216e-08
-2.0564e-08
3.5451e-05
3.54047e-05
3.52872e-05
3.50978e-05
3.48326e-05
3.44802e-05
3.40248e-05
3.34479e-05
3.27275e-05
3.18379e-05
3.07491e-05
2.94269e-05
2.78331e-05
2.59268e-05
2.36646e-05
2.10041e-05
1.79058e-05
1.43378e-05
1.02806e-05
5.73444e-06
7.26335e-07
-4.68267e-06
-1.03919e-05
-1.62579e-05
-2.20954e-05
-2.76845e-05
-3.27848e-05
-3.7157e-05
-4.05893e-05
-4.29246e-05
-4.40822e-05
-4.40694e-05
-4.29792e-05
-4.0974e-05
-3.82608e-05
-3.5062e-05
-3.15906e-05
-2.80322e-05
-2.45358e-05
-2.12115e-05
-1.81332e-05
-1.53439e-05
-1.28616e-05
-1.0686e-05
-8.80368e-06
-7.1932e-06
-5.82865e-06
-4.68241e-06
-3.72712e-06
-2.93681e-06
-2.28767e-06
-1.75843e-06
-1.33045e-06
-9.87681e-07
-7.1644e-07
-5.05044e-07
-3.43501e-07
-2.2319e-07
-1.36647e-07
-7.73951e-08
-3.98399e-08
-1.91494e-08
-1.11577e-08
-1.22474e-08
-1.92792e-08
-2.9531e-08
-4.07031e-08
-5.09288e-08
-5.88185e-08
-6.34742e-08
-6.4502e-08
-6.19819e-08
-5.64204e-08
-4.86675e-08
-3.98206e-08
-3.1101e-08
-2.36979e-08
-1.86183e-08
-1.61841e-08
-2.06147e-08
3.54914e-05
3.54464e-05
3.53324e-05
3.51484e-05
3.48906e-05
3.45477e-05
3.41042e-05
3.35416e-05
3.28382e-05
3.19683e-05
3.09017e-05
2.9604e-05
2.80366e-05
2.61574e-05
2.39217e-05
2.12849e-05
1.82047e-05
1.46457e-05
1.05847e-05
6.01733e-06
9.66576e-07
-4.50992e-06
-1.0313e-05
-1.62976e-05
-2.22732e-05
-2.80105e-05
-3.32559e-05
-3.77546e-05
-4.12794e-05
-4.36611e-05
-4.4813e-05
-4.47441e-05
-4.35567e-05
-4.14277e-05
-3.85802e-05
-3.5251e-05
-3.16639e-05
-2.80106e-05
-2.44423e-05
-2.10682e-05
-1.79596e-05
-1.51558e-05
-1.26712e-05
-1.0502e-05
-8.6319e-06
-7.03693e-06
-5.68943e-06
-4.56051e-06
-3.62195e-06
-2.84724e-06
-2.21223e-06
-1.69549e-06
-1.27837e-06
-9.44915e-07
-6.81552e-07
-4.76752e-07
-3.20654e-07
-2.04748e-07
-1.21669e-07
-6.50389e-08
-2.93811e-08
-9.99289e-09
-2.85065e-09
-4.47447e-09
-1.18524e-08
-2.23684e-08
-3.38087e-08
-4.43689e-08
-5.27021e-08
-5.79317e-08
-5.96654e-08
-5.79659e-08
-5.33051e-08
-4.64822e-08
-3.85315e-08
-3.06024e-08
-2.38115e-08
-1.90987e-08
-1.67331e-08
-2.08457e-08
3.55437e-05
3.55005e-05
3.53909e-05
3.5214e-05
3.49657e-05
3.46352e-05
3.42071e-05
3.36632e-05
3.29819e-05
3.21375e-05
3.10999e-05
2.98344e-05
2.83015e-05
2.64579e-05
2.42572e-05
2.16519e-05
1.85962e-05
1.50501e-05
1.0985e-05
6.39103e-06
1.28548e-06
-4.27859e-06
-1.02041e-05
-1.63445e-05
-2.25024e-05
-2.8436e-05
-3.38743e-05
-3.85415e-05
-4.21899e-05
-4.46335e-05
-4.57775e-05
-4.56335e-05
-4.4316e-05
-4.20219e-05
-3.89958e-05
-3.54942e-05
-3.17548e-05
-2.79774e-05
-2.43156e-05
-2.08772e-05
-1.77297e-05
-1.49079e-05
-1.24211e-05
-1.0261e-05
-8.40724e-06
-6.83289e-06
-5.50789e-06
-4.40174e-06
-3.4851e-06
-2.73076e-06
-2.11417e-06
-1.61372e-06
-1.21075e-06
-8.89396e-07
-6.36289e-07
-4.40084e-07
-2.91088e-07
-1.80931e-07
-1.02371e-07
-4.91603e-08
-1.59725e-08
1.72213e-09
7.76278e-09
5.44901e-09
-2.3688e-09
-1.32098e-08
-2.49661e-08
-3.5912e-08
-4.47536e-08
-5.06431e-08
-5.31939e-08
-5.24513e-08
-4.88488e-08
-4.31277e-08
-3.62485e-08
-2.9277e-08
-2.32455e-08
-1.9021e-08
-1.6828e-08
-2.07772e-08
3.56067e-05
3.55655e-05
3.54613e-05
3.52929e-05
3.50563e-05
3.47407e-05
3.43312e-05
3.38098e-05
3.31552e-05
3.23419e-05
3.13396e-05
3.01132e-05
2.86225e-05
2.68227e-05
2.46651e-05
2.2099e-05
1.90741e-05
1.55451e-05
1.14768e-05
6.85213e-06
1.68134e-06
-3.98837e-06
-1.00629e-05
-1.6394e-05
-2.27764e-05
-2.89531e-05
-3.46312e-05
-3.95088e-05
-4.33116e-05
-4.58328e-05
-4.69667e-05
-4.6728e-05
-4.52476e-05
-4.27471e-05
-3.94992e-05
-3.57845e-05
-3.18582e-05
-2.79294e-05
-2.41544e-05
-2.06388e-05
-1.74455e-05
-1.4603e-05
-1.21148e-05
-9.96665e-06
-8.13359e-06
-6.58485e-06
-5.28758e-06
-4.20933e-06
-3.31945e-06
-2.58992e-06
-1.99569e-06
-1.51497e-06
-1.12909e-06
-8.22375e-07
-5.81661e-07
-3.95848e-07
-2.5545e-07
-1.5226e-07
-7.9184e-08
-3.01309e-08
4.1442e-11
1.56496e-08
2.03074e-08
1.70979e-08
8.67984e-09
-2.62225e-09
-1.48211e-08
-2.62785e-08
-3.57594e-08
-4.24487e-08
-4.59669e-08
-4.63419e-08
-4.39658e-08
-3.9517e-08
-3.38757e-08
-2.80174e-08
-2.28841e-08
-1.92641e-08
-1.73244e-08
-2.11098e-08
3.56787e-05
3.564e-05
3.5542e-05
3.53833e-05
3.516e-05
3.48616e-05
3.44735e-05
3.39781e-05
3.33544e-05
3.25769e-05
3.16155e-05
3.04346e-05
2.8993e-05
2.72444e-05
2.51375e-05
2.2618e-05
1.96305e-05
1.61232e-05
1.20533e-05
7.39544e-06
2.15104e-06
-3.63982e-06
-9.88707e-06
-1.6441e-05
-2.30874e-05
-2.95517e-05
-3.55152e-05
-4.06441e-05
-4.4632e-05
-4.72459e-05
-4.83674e-05
-4.80146e-05
-4.63383e-05
-4.35912e-05
-4.00794e-05
-3.61131e-05
-3.19678e-05
-2.78631e-05
-2.39577e-05
-2.03543e-05
-1.71097e-05
-1.42452e-05
-1.17569e-05
-9.62402e-06
-7.81598e-06
-6.29764e-06
-5.03298e-06
-3.98734e-06
-3.12861e-06
-2.42782e-06
-1.85944e-06
-1.40144e-06
-1.03521e-06
-7.45276e-07
-5.18766e-07
-3.44865e-07
-2.14323e-07
-1.19119e-07
-5.23264e-08
-8.03484e-09
1.86812e-08
3.18889e-08
3.49404e-08
3.06694e-08
2.15197e-08
9.64373e-09
-3.10027e-09
-1.5166e-08
-2.53796e-08
-3.29597e-08
-3.75349e-08
-3.91157e-08
-3.80513e-08
-3.49552e-08
-3.06252e-08
-2.59454e-08
-2.1769e-08
-1.88102e-08
-1.71951e-08
-2.09579e-08
3.57581e-05
3.57221e-05
3.56308e-05
3.54829e-05
3.52744e-05
3.4995e-05
3.46306e-05
3.41641e-05
3.35747e-05
3.28372e-05
3.19214e-05
3.07913e-05
2.9405e-05
2.77142e-05
2.5665e-05
2.31989e-05
2.02552e-05
1.67747e-05
1.27061e-05
8.01396e-06
2.68995e-06
-3.23457e-06
-9.6747e-06
-1.64798e-05
-2.34263e-05
-3.02198e-05
-3.65117e-05
-4.19313e-05
-4.6134e-05
-4.88557e-05
-4.9962e-05
-4.94758e-05
-4.75716e-05
-4.45388e-05
-4.07236e-05
-3.64702e-05
-3.20771e-05
-2.77753e-05
-2.37253e-05
-2.00258e-05
-1.67264e-05
-1.38397e-05
-1.13534e-05
-9.23929e-06
-7.46048e-06
-5.97702e-06
-4.7494e-06
-3.74055e-06
-2.91677e-06
-2.24813e-06
-1.70854e-06
-1.27577e-06
-9.31318e-07
-6.59953e-07
-4.49161e-07
-2.88455e-07
-1.68851e-07
-8.25318e-08
-2.27485e-08
1.62091e-08
3.90238e-08
4.94821e-08
5.06435e-08
4.50684e-08
3.49693e-08
2.23187e-08
8.84383e-09
-3.99992e-09
-1.5098e-08
-2.37018e-08
-2.94479e-08
-3.23289e-08
-3.26512e-08
-3.09626e-08
-2.798e-08
-2.4499e-08
-2.12889e-08
-1.89951e-08
-1.76932e-08
-2.13566e-08
3.58429e-05
3.58098e-05
3.57258e-05
3.55894e-05
3.53967e-05
3.51378e-05
3.47989e-05
3.43634e-05
3.3811e-05
3.31167e-05
3.22502e-05
3.11755e-05
2.98493e-05
2.8222e-05
2.62365e-05
2.38302e-05
2.09363e-05
1.74878e-05
1.34239e-05
8.69831e-06
3.29124e-06
-2.77602e-06
-9.42507e-06
-1.65052e-05
-2.37831e-05
-3.09431e-05
-3.76029e-05
-4.335e-05
-4.77955e-05
-5.06391e-05
-5.17278e-05
-5.10894e-05
-4.89265e-05
-4.55715e-05
-4.14166e-05
-3.68446e-05
-3.21793e-05
-2.76632e-05
-2.3458e-05
-1.9657e-05
-1.6301e-05
-1.33931e-05
-1.09116e-05
-8.81989e-06
-7.07432e-06
-5.62976e-06
-4.44298e-06
-3.47439e-06
-2.68869e-06
-2.0549e-06
-1.5464e-06
-1.14078e-06
-8.19667e-07
-5.68166e-07
-3.74169e-07
-2.27563e-07
-1.19652e-07
-4.28314e-08
9.45995e-09
4.27181e-08
6.13594e-08
6.88623e-08
6.79679e-08
6.09445e-08
4.97634e-08
3.62154e-08
2.18994e-08
8.18344e-09
-3.87425e-09
-1.35575e-08
-2.05114e-08
-2.47128e-08
-2.64266e-08
-2.61374e-08
-2.44838e-08
-2.21792e-08
-1.99179e-08
-1.82899e-08
-1.73518e-08
-2.11014e-08
3.5931e-05
3.59008e-05
3.58244e-05
3.57001e-05
3.5524e-05
3.52864e-05
3.49742e-05
3.45712e-05
3.40576e-05
3.34087e-05
3.25943e-05
3.15781e-05
3.0316e-05
2.87564e-05
2.68395e-05
2.44982e-05
2.16595e-05
1.82483e-05
1.41933e-05
9.43654e-06
3.94559e-06
-2.26975e-06
-9.13899e-06
-1.65124e-05
-2.41472e-05
-3.1705e-05
-3.87674e-05
-4.48748e-05
-4.95886e-05
-5.25671e-05
-5.36357e-05
-5.28277e-05
-5.03781e-05
-4.6668e-05
-4.21419e-05
-3.72251e-05
-3.22683e-05
-2.75254e-05
-2.31582e-05
-1.92531e-05
-1.58409e-05
-1.2914e-05
-1.04404e-05
-8.37467e-06
-6.66592e-06
-5.26364e-06
-4.12077e-06
-3.19517e-06
-2.44988e-06
-1.85295e-06
-1.37719e-06
-1.00007e-06
-7.0338e-07
-4.72643e-07
-2.96206e-07
-1.64369e-07
-6.87305e-08
-1.90044e-09
4.24949e-08
6.97278e-08
8.39299e-08
8.82494e-08
8.50908e-08
7.64201e-08
6.39673e-08
4.9348e-08
3.4042e-08
1.93385e-08
6.24342e-09
-4.55921e-09
-1.27265e-08
-1.8224e-08
-2.12808e-08
-2.23234e-08
-2.19182e-08
-2.0704e-08
-1.931e-08
-1.82804e-08
-1.76483e-08
-2.14017e-08
3.60201e-05
3.5993e-05
3.59243e-05
3.58123e-05
3.5653e-05
3.54371e-05
3.51522e-05
3.47824e-05
3.43085e-05
3.37061e-05
3.29454e-05
3.19895e-05
3.07938e-05
2.93048e-05
2.746e-05
2.51878e-05
2.24088e-05
1.90395e-05
1.49981e-05
1.02138e-05
4.64073e-06
-1.72408e-06
-8.81946e-06
-1.64979e-05
-2.45078e-05
-3.24875e-05
-3.99801e-05
-4.64751e-05
-5.14789e-05
-5.46034e-05
-5.56497e-05
-5.46571e-05
-5.18964e-05
-4.7804e-05
-4.28815e-05
-3.76003e-05
-3.2339e-05
-2.73623e-05
-2.28304e-05
-1.88215e-05
-1.53552e-05
-1.24124e-05
-9.9501e-06
-7.91358e-06
-6.2446e-06
-4.8871e-06
-3.79022e-06
-2.90931e-06
-2.20582e-06
-1.64681e-06
-1.20459e-06
-8.56519e-07
-5.84651e-07
-3.74958e-07
-2.16309e-07
-9.94337e-08
-1.62341e-08
4.04783e-08
7.68927e-08
9.80501e-08
1.07779e-07
1.08878e-07
1.03398e-07
9.29985e-08
7.91761e-08
6.33848e-08
4.70011e-08
3.12477e-08
1.70848e-08
5.16387e-09
-4.18929e-09
-1.09373e-08
-1.52814e-08
-1.75984e-08
-1.83907e-08
-1.82309e-08
-1.76936e-08
-1.72903e-08
-1.70603e-08
-2.10554e-08
3.61081e-05
3.6084e-05
3.6023e-05
3.59232e-05
3.57805e-05
3.55863e-05
3.53285e-05
3.49918e-05
3.45575e-05
3.40018e-05
3.32948e-05
3.23997e-05
3.1271e-05
2.98539e-05
2.80829e-05
2.58821e-05
2.3166e-05
1.98427e-05
1.58193e-05
1.10122e-05
5.3612e-06
-1.15043e-06
-8.47214e-06
-1.646e-05
-2.48545e-05
-3.3271e-05
-4.12126e-05
-4.81148e-05
-5.3425e-05
-5.67043e-05
-5.77263e-05
-5.65372e-05
-5.34472e-05
-4.89524e-05
-4.36165e-05
-3.79594e-05
-3.23879e-05
-2.71761e-05
-2.24812e-05
-1.83717e-05
-1.48552e-05
-1.19001e-05
-9.45248e-06
-7.44794e-06
-5.82083e-06
-4.50963e-06
-3.45981e-06
-2.62432e-06
-1.9631e-06
-1.44227e-06
-1.03368e-06
-7.14624e-07
-4.67474e-07
-2.78725e-07
-1.37796e-07
-3.58589e-08
3.48998e-08
8.14885e-08
1.09927e-07
1.25024e-07
1.30292e-07
1.28157e-07
1.20311e-07
1.08108e-07
9.28225e-08
7.57688e-08
5.82426e-08
4.14171e-08
2.62157e-08
1.32574e-08
2.84322e-09
-4.99814e-09
-1.04537e-08
-1.38635e-08
-1.56781e-08
-1.6415e-08
-1.66042e-08
-1.67329e-08
-1.68456e-08
-2.10443e-08
3.61927e-05
3.61716e-05
3.6118e-05
3.603e-05
3.59035e-05
3.57302e-05
3.54986e-05
3.51941e-05
3.47984e-05
3.4288e-05
3.36336e-05
3.27982e-05
3.17356e-05
3.03895e-05
2.86921e-05
2.65634e-05
2.39117e-05
2.0637e-05
1.66357e-05
1.1811e-05
6.08843e-06
-5.63472e-07
-8.1057e-06
-1.63992e-05
-2.51779e-05
-3.4035e-05
-4.24332e-05
-4.97527e-05
-5.53786e-05
-5.88178e-05
-5.98146e-05
-5.84218e-05
-5.49916e-05
-5.00839e-05
-4.43279e-05
-3.82931e-05
-3.24136e-05
-2.69717e-05
-2.21197e-05
-1.79154e-05
-1.43537e-05
-1.13905e-05
-8.96039e-06
-6.98963e-06
-5.40527e-06
-4.14058e-06
-3.13753e-06
-2.34689e-06
-1.72719e-06
-1.24369e-06
-8.6779e-07
-5.76815e-07
-3.53491e-07
-1.84895e-07
-6.10301e-08
2.64958e-08
8.52411e-08
1.22068e-07
1.42849e-07
1.52163e-07
1.53194e-07
1.47986e-07
1.37855e-07
1.23856e-07
1.0706e-07
8.86684e-08
6.99223e-08
5.19685e-08
3.57072e-08
2.17278e-08
1.03011e-08
1.43562e-09
-5.05594e-09
-9.49133e-09
-1.22824e-08
-1.39025e-08
-1.4846e-08
-1.55839e-08
-1.61757e-08
-2.07783e-08
3.62719e-05
3.62535e-05
3.62069e-05
3.61299e-05
3.60186e-05
3.58651e-05
3.56583e-05
3.53841e-05
3.50249e-05
3.45576e-05
3.39532e-05
3.31745e-05
3.21752e-05
3.08975e-05
2.92714e-05
2.7213e-05
2.46254e-05
2.14003e-05
1.7424e-05
1.25873e-05
6.80094e-06
1.89661e-08
-7.73192e-06
-1.63187e-05
-2.54702e-05
-3.47588e-05
-4.36083e-05
-5.13431e-05
-5.72851e-05
-6.08851e-05
-6.18566e-05
-6.02587e-05
-5.64872e-05
-5.11682e-05
-4.49972e-05
-3.85934e-05
-3.24171e-05
-2.67564e-05
-2.17575e-05
-1.74666e-05
-1.38658e-05
-1.08984e-05
-8.48803e-06
-6.55179e-06
-5.00983e-06
-3.79055e-06
-2.83278e-06
-2.08531e-06
-1.50542e-06
-1.05754e-06
-7.12717e-07
-4.48299e-07
-2.47438e-07
-9.78317e-08
9.92126e-09
8.37975e-08
1.31144e-07
1.58725e-07
1.72298e-07
1.76226e-07
1.73361e-07
1.6535e-07
1.53135e-07
1.37472e-07
1.19249e-07
9.95772e-08
7.96738e-08
6.0682e-08
4.34937e-08
2.86736e-08
1.64569e-08
6.81923e-09
-4.43399e-10
-5.64427e-09
-9.17266e-09
-1.14713e-08
-1.3009e-08
-1.42487e-08
-1.52755e-08
-2.03416e-08
3.63435e-05
3.63277e-05
3.62874e-05
3.62205e-05
3.61231e-05
3.59875e-05
3.58033e-05
3.5557e-05
3.52311e-05
3.48034e-05
3.42449e-05
3.35186e-05
3.25778e-05
3.13638e-05
2.98044e-05
2.78125e-05
2.5286e-05
2.21096e-05
1.81601e-05
1.33162e-05
7.47506e-06
5.76402e-07
-7.36548e-06
-1.62243e-05
-2.57255e-05
-3.54227e-05
-4.47029e-05
-5.28372e-05
-5.9085e-05
-6.28415e-05
-6.37885e-05
-6.19913e-05
-5.78893e-05
-5.2174e-05
-4.5607e-05
-3.8855e-05
-3.24019e-05
-2.65399e-05
-2.1408e-05
-1.70407e-05
-1.34072e-05
-1.04391e-05
-8.04935e-06
-6.14683e-06
-4.64524e-06
-3.46863e-06
-2.55306e-06
-1.84562e-06
-1.30248e-06
-8.87361e-07
-5.70952e-07
-3.30686e-07
-1.50173e-07
-1.77549e-08
7.53757e-08
1.36811e-07
1.73738e-07
1.92872e-07
1.99901e-07
1.98991e-07
1.92668e-07
1.82188e-07
1.68112e-07
1.50913e-07
1.31309e-07
1.1035e-07
8.9254e-08
6.91872e-08
5.10514e-08
3.53959e-08
2.24204e-08
1.20603e-08
4.08175e-09
-1.83899e-09
-6.08291e-09
-9.07347e-09
-1.12616e-08
-1.31034e-08
-1.46955e-08
-2.03022e-08
3.64059e-05
3.63922e-05
3.63575e-05
3.62994e-05
3.62142e-05
3.60944e-05
3.59301e-05
3.57081e-05
3.54117e-05
3.50187e-05
3.45008e-05
3.38211e-05
3.29323e-05
3.17751e-05
3.02755e-05
2.83437e-05
2.5873e-05
2.27421e-05
1.88192e-05
1.39723e-05
8.08592e-06
1.08662e-06
-7.02322e-06
-1.61244e-05
-2.59402e-05
-3.60083e-05
-4.56827e-05
-5.41849e-05
-6.07162e-05
-6.46185e-05
-6.55432e-05
-6.35608e-05
-5.91521e-05
-5.30714e-05
-4.6142e-05
-3.90747e-05
-3.23739e-05
-2.63341e-05
-2.10866e-05
-1.66543e-05
-1.29947e-05
-1.00284e-05
-7.65921e-06
-5.78818e-06
-4.32348e-06
-3.1854e-06
-2.30769e-06
-1.63602e-06
-1.12562e-06
-7.39577e-07
-4.48263e-07
-2.29209e-07
-6.64897e-08
5.09138e-08
1.3124e-07
1.8174e-07
2.09491e-07
2.21216e-07
2.22573e-07
2.17565e-07
2.08413e-07
1.9599e-07
1.80492e-07
1.62115e-07
1.41424e-07
1.19424e-07
9.73561e-08
7.64264e-08
5.75622e-08
4.13068e-08
2.78262e-08
1.70099e-08
8.58383e-09
2.19977e-09
-2.52862e-09
-6.01716e-09
-8.70737e-09
-1.10572e-08
-1.31998e-08
-1.95125e-08
3.64573e-05
3.64454e-05
3.64153e-05
3.63646e-05
3.62895e-05
3.61829e-05
3.60351e-05
3.58335e-05
3.55616e-05
3.51979e-05
3.4714e-05
3.40733e-05
3.32284e-05
3.21192e-05
3.06704e-05
2.87899e-05
2.63675e-05
2.32765e-05
1.93779e-05
1.45308e-05
8.60892e-06
1.527e-06
-6.72313e-06
-1.6029e-05
-2.6113e-05
-3.64997e-05
-4.6515e-05
-5.53377e-05
-6.21173e-05
-6.6148e-05
-6.70535e-05
-6.49087e-05
-6.02313e-05
-5.3832e-05
-4.6589e-05
-3.92514e-05
-3.23405e-05
-2.61517e-05
-2.08084e-05
-1.63234e-05
-1.26438e-05
-9.68095e-06
-7.33039e-06
-5.48684e-06
-4.05379e-06
-2.94845e-06
-2.10273e-06
-1.4612e-06
-9.78331e-07
-6.16661e-07
-3.46276e-07
-1.44809e-07
3.22222e-09
1.08239e-07
1.77958e-07
2.1934e-07
2.39404e-07
2.44923e-07
2.41566e-07
2.33214e-07
2.21819e-07
2.07904e-07
1.91324e-07
1.7202e-07
1.50418e-07
1.27494e-07
1.04523e-07
8.27685e-08
6.3196e-08
4.63537e-08
3.23814e-08
2.11244e-08
1.22645e-08
5.42202e-09
1.96696e-10
-3.82673e-09
-7.08357e-09
-1.00286e-08
-1.27944e-08
-1.97178e-08
3.64964e-05
3.6486e-05
3.64594e-05
3.64144e-05
3.6347e-05
3.62506e-05
3.61156e-05
3.59298e-05
3.56769e-05
3.53358e-05
3.48783e-05
3.4268e-05
3.34573e-05
3.23856e-05
3.09768e-05
2.91367e-05
2.67526e-05
2.36936e-05
1.98153e-05
1.49695e-05
9.02131e-06
1.87621e-06
-6.48273e-06
-1.59489e-05
-2.62443e-05
-3.68839e-05
-4.71714e-05
-5.62513e-05
-6.32312e-05
-6.73661e-05
-6.82565e-05
-6.59807e-05
-6.10867e-05
-5.44313e-05
-4.69379e-05
-3.9386e-05
-3.23102e-05
-2.60054e-05
-2.05885e-05
-1.60637e-05
-1.23698e-05
-9.41069e-06
-7.07555e-06
-5.25407e-06
-3.84608e-06
-2.76646e-06
-1.94578e-06
-1.3278e-06
-8.66423e-07
-5.23716e-07
-2.69529e-07
-8.15753e-08
5.52457e-08
1.50837e-07
2.12476e-07
2.4689e-07
2.61077e-07
2.61889e-07
2.55039e-07
2.44327e-07
2.31488e-07
2.16741e-07
1.99643e-07
1.79907e-07
1.57837e-07
1.34384e-07
1.1086e-07
8.85892e-08
6.85814e-08
5.13985e-08
3.71614e-08
2.5676e-08
1.65806e-08
9.46115e-09
3.89855e-09
-5.26868e-10
-4.24797e-09
-7.72198e-09
-1.1112e-08
-1.88424e-08
3.65222e-05
3.65127e-05
3.64886e-05
3.64474e-05
3.63853e-05
3.62958e-05
3.61694e-05
3.59943e-05
3.57543e-05
3.54286e-05
3.49891e-05
3.43995e-05
3.36121e-05
3.25661e-05
3.11846e-05
2.93724e-05
2.70147e-05
2.3978e-05
2.01141e-05
1.52697e-05
9.30404e-06
2.11607e-06
-6.31736e-06
-1.58939e-05
-2.63357e-05
-3.71512e-05
-4.76288e-05
-5.68891e-05
-6.401e-05
-6.82187e-05
-6.90988e-05
-6.67307e-05
-6.16843e-05
-5.48492e-05
-4.71808e-05
-3.94803e-05
-3.22906e-05
-2.59063e-05
-2.04393e-05
-1.58876e-05
-1.21844e-05
-9.22813e-06
-6.90379e-06
-5.09751e-06
-3.70664e-06
-2.64454e-06
-1.84087e-06
-1.23892e-06
-7.92151e-07
-4.62319e-07
-2.19071e-07
-4.01701e-08
8.91996e-08
1.78548e-07
2.34816e-07
2.64569e-07
2.74807e-07
2.72475e-07
2.63351e-07
2.51196e-07
2.3759e-07
2.22522e-07
2.05312e-07
1.85484e-07
1.63243e-07
1.39514e-07
1.15648e-07
9.30209e-08
7.26911e-08
5.52396e-08
4.0778e-08
2.90827e-08
1.97553e-08
1.23504e-08
6.43064e-09
1.57186e-09
-2.65436e-09
-6.69787e-09
-1.07089e-08
-1.90483e-08
3.65341e-05
3.65251e-05
3.65021e-05
3.64628e-05
3.64033e-05
3.63172e-05
3.61951e-05
3.60253e-05
3.57917e-05
3.54736e-05
3.50431e-05
3.44638e-05
3.36881e-05
3.2655e-05
3.12871e-05
2.94888e-05
2.71444e-05
2.41188e-05
2.02619e-05
1.54181e-05
9.44335e-06
2.2333e-06
-6.23842e-06
-1.58717e-05
-2.63889e-05
-3.7295e-05
-4.78709e-05
-5.72246e-05
-6.44188e-05
-6.86658e-05
-6.95408e-05
-6.7125e-05
-6.19995e-05
-5.50716e-05
-4.7313e-05
-3.9536e-05
-3.22881e-05
-2.5863e-05
-2.03703e-05
-1.58047e-05
-1.20965e-05
-9.14146e-06
-6.82235e-06
-5.02351e-06
-3.64103e-06
-2.58749e-06
-1.79218e-06
-1.19812e-06
-7.58584e-07
-4.35099e-07
-1.97179e-07
-2.25943e-08
1.03312e-07
1.89816e-07
2.43656e-07
2.71302e-07
2.79777e-07
2.76108e-07
2.66143e-07
2.53645e-07
2.40108e-07
2.25378e-07
2.0861e-07
1.89197e-07
1.6726e-07
1.43707e-07
1.19907e-07
9.72806e-08
7.69246e-08
5.94417e-08
4.49428e-08
3.31854e-08
2.37445e-08
1.61505e-08
9.95198e-09
4.72224e-09
3.91981e-11
-4.54042e-09
-9.1775e-09
-1.82742e-08
3.65316e-05
3.65225e-05
3.64995e-05
3.64601e-05
3.64005e-05
3.63141e-05
3.61919e-05
3.60218e-05
3.5788e-05
3.54696e-05
3.50387e-05
3.4459e-05
3.36828e-05
3.26492e-05
3.12808e-05
2.94819e-05
2.71367e-05
2.41103e-05
2.02526e-05
1.54078e-05
9.43208e-06
2.22095e-06
-6.25192e-06
-1.58864e-05
-2.64048e-05
-3.73121e-05
-4.78892e-05
-5.72439e-05
-6.44389e-05
-6.86864e-05
-6.95614e-05
-6.71454e-05
-6.20194e-05
-5.50909e-05
-4.73318e-05
-3.95542e-05
-3.23056e-05
-2.58798e-05
-2.03861e-05
-1.58196e-05
-1.21104e-05
-9.1545e-06
-6.83451e-06
-5.03481e-06
-3.65149e-06
-2.59718e-06
-1.8012e-06
-1.20659e-06
-7.66623e-07
-4.42744e-07
-2.04395e-07
-2.93061e-08
9.71643e-08
1.8424e-07
2.38607e-07
2.66717e-07
2.75623e-07
2.72413e-07
2.63001e-07
2.51187e-07
2.38458e-07
2.24609e-07
2.08724e-07
1.90122e-07
1.68873e-07
1.4586e-07
1.2246e-07
1.00117e-07
7.99551e-08
6.25978e-08
4.81628e-08
3.64022e-08
2.68777e-08
1.91066e-08
1.26308e-08
7.02677e-09
1.88436e-09
-3.22292e-09
-8.43605e-09
-1.81206e-08
3.65148e-05
3.65052e-05
3.64809e-05
3.64394e-05
3.63769e-05
3.62868e-05
3.61598e-05
3.59839e-05
3.57432e-05
3.54164e-05
3.49759e-05
3.43851e-05
3.35964e-05
3.25489e-05
3.11657e-05
2.93515e-05
2.69918e-05
2.39527e-05
2.00862e-05
1.5239e-05
9.27035e-06
2.07916e-06
-6.35767e-06
-1.59377e-05
-2.63832e-05
-3.72023e-05
-4.76833e-05
-5.69466e-05
-6.407e-05
-6.828e-05
-6.91603e-05
-6.67915e-05
-6.17436e-05
-5.49068e-05
-4.72367e-05
-3.95345e-05
-3.2343e-05
-2.59564e-05
-2.04866e-05
-1.59321e-05
-1.2226e-05
-9.267e-06
-6.94003e-06
-5.13119e-06
-3.73784e-06
-2.67341e-06
-1.86773e-06
-1.26413e-06
-8.16033e-07
-4.84985e-07
-2.40416e-07
-5.99741e-08
7.11168e-08
1.62218e-07
2.20117e-07
2.51326e-07
2.6293e-07
2.62052e-07
2.5466e-07
2.44622e-07
2.33494e-07
2.21122e-07
2.06608e-07
1.89264e-07
1.69136e-07
1.47083e-07
1.2447e-07
1.0274e-07
8.3032e-08
6.59858e-08
5.17339e-08
4.00372e-08
3.04599e-08
2.25205e-08
1.57646e-08
9.77919e-09
4.17194e-09
-1.46227e-09
-7.2492e-09
-1.75449e-08
3.6484e-05
3.64734e-05
3.64466e-05
3.6401e-05
3.6333e-05
3.62356e-05
3.60996e-05
3.59126e-05
3.56583e-05
3.53156e-05
3.48564e-05
3.42441e-05
3.34312e-05
3.2357e-05
3.09453e-05
2.91021e-05
2.67145e-05
2.36517e-05
1.97692e-05
1.49187e-05
8.96557e-06
1.81517e-06
-6.54936e-06
-1.60213e-05
-2.63227e-05
-3.69682e-05
-4.72613e-05
-5.63461e-05
-6.33298e-05
-6.74669e-05
-6.83577e-05
-6.60807e-05
-6.11843e-05
-5.45261e-05
-4.70299e-05
-3.94752e-05
-3.23963e-05
-2.60877e-05
-2.06665e-05
-1.6137e-05
-1.24385e-05
-9.47486e-06
-7.13542e-06
-5.30978e-06
-3.89774e-06
-2.81436e-06
-1.99039e-06
-1.36973e-06
-9.06162e-07
-5.6146e-07
-3.05125e-07
-1.14681e-07
2.49195e-08
1.23355e-07
1.87663e-07
2.24492e-07
2.40964e-07
2.44214e-07
2.40252e-07
2.33044e-07
2.24289e-07
2.13974e-07
2.01312e-07
1.85669e-07
1.67097e-07
1.46428e-07
1.24993e-07
1.04216e-07
8.52301e-08
6.86904e-08
5.47516e-08
4.31981e-08
3.36144e-08
2.55355e-08
1.85231e-08
1.21834e-08
6.14846e-09
4.15474e-11
-6.23718e-09
-1.70395e-08
3.644e-05
3.6428e-05
3.63974e-05
3.6346e-05
3.62699e-05
3.61621e-05
3.60128e-05
3.58096e-05
3.55358e-05
3.51699e-05
3.46836e-05
3.40401e-05
3.31921e-05
3.20794e-05
3.06268e-05
2.87419e-05
2.63147e-05
2.32183e-05
1.93139e-05
1.44605e-05
8.53172e-06
1.44251e-06
-6.81527e-06
-1.61291e-05
-2.62212e-05
-3.66159e-05
-4.66387e-05
-5.5468e-05
-6.22526e-05
-6.62863e-05
-6.71923e-05
-6.50459e-05
-6.03654e-05
-5.39623e-05
-4.67155e-05
-3.9374e-05
-3.24589e-05
-2.62649e-05
-2.09157e-05
-1.64244e-05
-1.27385e-05
-9.76948e-06
-7.41305e-06
-5.56386e-06
-4.12534e-06
-3.0149e-06
-2.1647e-06
-1.51947e-06
-1.03356e-06
-6.69112e-07
-3.95763e-07
-1.90891e-07
-3.90624e-08
6.98687e-08
1.43322e-07
1.88149e-07
2.11527e-07
2.20585e-07
2.21371e-07
2.17978e-07
2.12311e-07
2.04586e-07
1.94203e-07
1.8064e-07
1.63978e-07
1.45025e-07
1.25062e-07
1.0547e-07
8.73675e-08
7.14205e-08
5.78153e-08
4.63765e-08
3.67267e-08
2.84349e-08
2.10914e-08
1.43309e-08
7.81723e-09
1.20884e-09
-5.55473e-09
-1.6762e-08
3.63839e-05
3.637e-05
3.63347e-05
3.62757e-05
3.61892e-05
3.60679e-05
3.59017e-05
3.56776e-05
3.53787e-05
3.49831e-05
3.44621e-05
3.37788e-05
3.28861e-05
3.17245e-05
3.022e-05
2.82826e-05
2.58059e-05
2.26682e-05
1.87379e-05
1.3883e-05
7.98805e-06
9.79612e-07
-7.1398e-06
-1.62509e-05
-2.60767e-05
-3.61546e-05
-4.58382e-05
-5.43485e-05
-6.0886e-05
-6.47918e-05
-6.57172e-05
-6.37328e-05
-5.93203e-05
-5.32349e-05
-4.63008e-05
-3.92286e-05
-3.25224e-05
-2.64763e-05
-2.12215e-05
-1.67814e-05
-1.31139e-05
-1.01401e-05
-7.76362e-06
-5.88563e-06
-4.41422e-06
-3.26988e-06
-2.38663e-06
-1.71033e-06
-1.19609e-06
-8.06534e-07
-5.11522e-07
-2.88262e-07
-1.20854e-07
1.42751e-09
8.64879e-08
1.4145e-07
1.73567e-07
1.89963e-07
1.96726e-07
1.98105e-07
1.96264e-07
1.91709e-07
1.84095e-07
1.73057e-07
1.5873e-07
1.41891e-07
1.23763e-07
1.05668e-07
8.87003e-08
7.35352e-08
6.03989e-08
4.91695e-08
3.95238e-08
3.10786e-08
2.34639e-08
1.63505e-08
9.43792e-09
2.42249e-09
-4.72102e-09
-1.62696e-08
3.6317e-05
3.63008e-05
3.62598e-05
3.61918e-05
3.60929e-05
3.59554e-05
3.5769e-05
3.55201e-05
3.51913e-05
3.47602e-05
3.4198e-05
3.34676e-05
3.2522e-05
3.13027e-05
2.97374e-05
2.77389e-05
2.5205e-05
2.20206e-05
1.80623e-05
1.32088e-05
7.35749e-06
4.47995e-07
-7.5052e-06
-1.63756e-05
-2.58886e-05
-3.55972e-05
-4.48881e-05
-5.30315e-05
-5.92863e-05
-6.30468e-05
-6.39947e-05
-6.21953e-05
-5.80889e-05
-5.23683e-05
-4.57956e-05
-3.90378e-05
-3.25782e-05
-2.67088e-05
-2.15684e-05
-1.71921e-05
-1.35494e-05
-1.05724e-05
-8.17423e-06
-6.26362e-06
-4.75427e-06
-3.5704e-06
-2.64839e-06
-1.93549e-06
-1.38774e-06
-9.68423e-07
-6.47635e-07
-4.02438e-07
-2.16425e-07
-7.82206e-08
2.0639e-08
8.76053e-08
1.3004e-07
1.55078e-07
1.68863e-07
1.75823e-07
1.78417e-07
1.77496e-07
1.73009e-07
1.64788e-07
1.53038e-07
1.38519e-07
1.22385e-07
1.05899e-07
9.0121e-08
7.57421e-08
6.30353e-08
5.19443e-08
4.22135e-08
3.35188e-08
2.55393e-08
1.79873e-08
1.06028e-08
3.12458e-09
-4.42119e-09
-1.62124e-08
3.62409e-05
3.62222e-05
3.61747e-05
3.60964e-05
3.59833e-05
3.58276e-05
3.56182e-05
3.53411e-05
3.49784e-05
3.45073e-05
3.38985e-05
3.3115e-05
3.21102e-05
3.08264e-05
2.91934e-05
2.71275e-05
2.45314e-05
2.1297e-05
1.73106e-05
1.24629e-05
6.66478e-06
-1.29568e-07
-7.89333e-06
-1.64932e-05
-2.56579e-05
-3.49593e-05
-4.38205e-05
-5.15654e-05
-5.7515e-05
-6.11194e-05
-6.20917e-05
-6.04914e-05
-5.67152e-05
-5.13902e-05
-4.52128e-05
-3.88023e-05
-3.26186e-05
-2.69494e-05
-2.19411e-05
-1.76402e-05
-1.40291e-05
-1.10518e-05
-8.63194e-06
-6.68667e-06
-5.13609e-06
-3.90877e-06
-2.94379e-06
-2.19015e-06
-1.60499e-06
-1.15229e-06
-8.02497e-07
-5.32529e-07
-3.25473e-07
-1.69272e-07
-5.48571e-08
2.56029e-08
7.96189e-08
1.14367e-07
1.36066e-07
1.49341e-07
1.56967e-07
1.60162e-07
1.59206e-07
1.54144e-07
1.45275e-07
1.33348e-07
1.19455e-07
1.04793e-07
9.03958e-08
7.69674e-08
6.48328e-08
5.40077e-08
4.43103e-08
3.54815e-08
2.72526e-08
1.93796e-08
1.16435e-08
3.82423e-09
-4.00831e-09
-1.59872e-08
3.61575e-05
3.6136e-05
3.60814e-05
3.59918e-05
3.58633e-05
3.56876e-05
3.54531e-05
3.51452e-05
3.47456e-05
3.42309e-05
3.35716e-05
3.27306e-05
3.16618e-05
3.03089e-05
2.86038e-05
2.64665e-05
2.38054e-05
2.05202e-05
1.65075e-05
1.16706e-05
5.9349e-06
-7.30744e-07
-8.28719e-06
-1.65951e-05
-2.53882e-05
-3.4259e-05
-4.26699e-05
-5.00001e-05
-5.5634e-05
-5.90777e-05
-6.00754e-05
-5.86801e-05
-5.52449e-05
-5.03308e-05
-4.45677e-05
-3.85253e-05
-3.26376e-05
-2.71864e-05
-2.23241e-05
-1.81089e-05
-1.45362e-05
-1.15622e-05
-9.12179e-06
-7.14128e-06
-5.54765e-06
-4.27429e-06
-3.26344e-06
-2.46604e-06
-1.84052e-06
-1.35166e-06
-9.70281e-07
-6.73229e-07
-4.43111e-07
-2.67193e-07
-1.3578e-07
-4.06233e-08
2.59838e-08
7.12934e-08
1.0162e-07
1.21796e-07
1.3492e-07
1.42587e-07
1.45414e-07
1.43685e-07
1.37808e-07
1.28537e-07
1.16916e-07
1.04088e-07
9.10619e-08
7.85595e-08
6.69611e-08
5.6357e-08
4.66417e-08
3.76228e-08
2.90855e-08
2.08305e-08
1.26798e-08
4.45565e-09
-3.72395e-09
-1.5899e-08
3.60688e-05
3.60443e-05
3.59822e-05
3.58807e-05
3.57358e-05
3.55388e-05
3.52777e-05
3.49373e-05
3.44987e-05
3.39381e-05
3.32257e-05
3.23245e-05
3.1189e-05
2.97643e-05
2.79848e-05
2.57746e-05
2.30481e-05
1.97133e-05
1.56774e-05
1.08568e-05
5.19159e-06
-1.33498e-06
-8.67207e-06
-1.66754e-05
-2.50852e-05
-3.35163e-05
-4.14711e-05
-4.83844e-05
-5.37028e-05
-5.69866e-05
-5.80095e-05
-5.68178e-05
-5.37226e-05
-4.9221e-05
-4.38774e-05
-3.82122e-05
-3.26317e-05
-2.74099e-05
-2.27041e-05
-1.8583e-05
-1.50548e-05
-1.20883e-05
-9.62978e-06
-7.61494e-06
-5.97807e-06
-4.65778e-06
-3.59972e-06
-2.75703e-06
-2.08952e-06
-1.56289e-06
-1.14839e-06
-8.22824e-07
-5.68377e-07
-3.71671e-07
-2.2238e-07
-1.11805e-07
-3.20025e-08
2.43941e-08
6.38155e-08
9.1303e-08
1.10272e-07
1.22685e-07
1.29502e-07
1.3125e-07
1.28467e-07
1.21934e-07
1.12662e-07
1.01753e-07
9.01959e-08
7.87336e-08
6.77983e-08
5.75511e-08
4.79588e-08
3.88922e-08
3.01874e-08
2.16874e-08
1.32541e-08
4.75013e-09
-3.65785e-09
-1.59364e-08
3.5977e-05
3.59495e-05
3.58796e-05
3.57657e-05
3.56039e-05
3.5385e-05
3.50965e-05
3.47226e-05
3.4244e-05
3.36364e-05
3.28698e-05
3.19072e-05
3.07041e-05
2.92069e-05
2.73529e-05
2.50704e-05
2.22801e-05
1.88984e-05
1.48435e-05
1.00447e-05
4.45638e-06
-1.9244e-06
-9.03614e-06