/*--------------------------------*- C++ -*----------------------------------*\
| =========                 |                                                 |
| \\      /  F ield         | OpenFOAM: The Open Source CFD Toolbox           |
|  \\    /   O peration     | Version:  2512                                  |
|   \\  /    A nd           | Website:  www.openfoam.com                      |
|    \\/     M anipulation  |                                                 |
\*---------------------------------------------------------------------------*/
FoamFile
{
    version     2.0;
    format      ascii;
    arch        "LSB;label=32;scalar=64";
    class       volScalarField;
    location    "100";
    object      p;
}
// * * * * * * * * * * * * * * * * * * * * * * * * * * * * * * * * * * * * * //

dimensions      [0 2 -2 0 0 0 0];

internalField   nonuniform List<scalar> 
240106
(
2.10603e-05
2.10355e-05
2.09717e-05
2.08691e-05
2.07262e-05
2.05371e-05
2.02941e-05
1.99875e-05
1.96059e-05
1.91358e-05
1.85612e-05
1.7864e-05
1.70241e-05
1.60197e-05
1.48283e-05
1.34275e-05
1.17969e-05
9.92022e-06
7.78783e-06
5.40036e-06
2.77211e-06
-6.55216e-08
-3.06135e-06
-6.14296e-06
-9.21752e-06
-1.21755e-05
-1.4898e-05
-1.7267e-05
-1.91779e-05
-2.05518e-05
-2.1346e-05
-2.15595e-05
-2.12321e-05
-2.04379e-05
-1.9273e-05
-1.7843e-05
-1.62508e-05
-1.45881e-05
-1.29304e-05
-1.13351e-05
-9.84221e-06
-8.47669e-06
-7.25088e-06
-6.16762e-06
-5.22288e-06
-4.40813e-06
-3.71214e-06
-3.12237e-06
-2.62592e-06
-2.21029e-06
-1.86375e-06
-1.5757e-06
-1.33674e-06
-1.13868e-06
-9.74466e-07
-8.38066e-07
-7.24331e-07
-6.2892e-07
-5.48214e-07
-4.79261e-07
-4.19697e-07
-3.67676e-07
-3.21769e-07
-2.80883e-07
-2.44179e-07
-2.11029e-07
-1.80966e-07
-1.53674e-07
-1.28954e-07
-1.06712e-07
-8.69088e-08
-6.95382e-08
-5.45745e-08
-4.19468e-08
-3.15098e-08
-2.30402e-08
-1.62448e-08
-1.08025e-08
-6.34548e-09
-2.44212e-09
2.10674e-05
2.10429e-05
2.09797e-05
2.08781e-05
2.07365e-05
2.05491e-05
2.03082e-05
2.00042e-05
1.96256e-05
1.9159e-05
1.85884e-05
1.78956e-05
1.70604e-05
1.60609e-05
1.48743e-05
1.34778e-05
1.18506e-05
9.97565e-06
7.84276e-06
5.45174e-06
2.81616e-06
-3.31782e-08
-3.04534e-06
-6.14768e-06
-9.24644e-06
-1.22305e-05
-1.49787e-05
-1.73702e-05
-1.92979e-05
-2.06807e-05
-2.14747e-05
-2.16793e-05
-2.1336e-05
-2.05209e-05
-1.93331e-05
-1.78806e-05
-1.62684e-05
-1.4589e-05
-1.29185e-05
-1.1314e-05
-9.81542e-06
-8.44691e-06
-7.22026e-06
-6.1377e-06
-5.19469e-06
-4.38229e-06
-3.68896e-06
-3.10193e-06
-2.60816e-06
-2.19503e-06
-1.85076e-06
-1.56472e-06
-1.32751e-06
-1.13096e-06
-9.68048e-07
-8.32753e-07
-7.19955e-07
-6.25329e-07
-5.45272e-07
-4.7685e-07
-4.17719e-07
-3.66056e-07
-3.2045e-07
-2.79826e-07
-2.43358e-07
-2.10421e-07
-1.80551e-07
-1.53429e-07
-1.28856e-07
-1.06732e-07
-8.7018e-08
-6.9706e-08
-5.47715e-08
-4.21451e-08
-3.16852e-08
-2.31739e-08
-1.63256e-08
-1.0831e-08
-6.33448e-09
-2.51294e-09
2.10814e-05
2.10573e-05
2.09954e-05
2.08957e-05
2.07567e-05
2.05727e-05
2.0336e-05
2.0037e-05
1.96645e-05
1.92048e-05
1.86421e-05
1.7958e-05
1.71322e-05
1.61424e-05
1.49652e-05
1.35774e-05
1.19569e-05
1.00856e-05
7.95182e-06
5.55394e-06
2.90399e-06
3.1599e-08
-3.01285e-06
-6.15625e-06
-9.30311e-06
-1.23391e-05
-1.51384e-05
-1.75751e-05
-1.95363e-05
-2.09369e-05
-2.17308e-05
-2.19177e-05
-2.15423e-05
-2.06856e-05
-1.94522e-05
-1.79552e-05
-1.63029e-05
-1.45905e-05
-1.28945e-05
-1.12721e-05
-9.76217e-06
-8.38779e-06
-7.1595e-06
-6.07835e-06
-5.1388e-06
-4.33108e-06
-3.64305e-06
-3.06148e-06
-2.57303e-06
-2.16487e-06
-1.82511e-06
-1.54306e-06
-1.30933e-06
-1.11578e-06
-9.55439e-07
-8.22334e-07
-7.11385e-07
-6.183e-07
-5.39511e-07
-4.72117e-07
-4.13819e-07
-3.62837e-07
-3.17802e-07
-2.77674e-07
-2.41649e-07
-2.09113e-07
-1.79607e-07
-1.5281e-07
-1.28516e-07
-1.06624e-07
-8.70915e-08
-6.99102e-08
-5.50556e-08
-4.2461e-08
-3.19894e-08
-2.34308e-08
-1.65114e-08
-1.09379e-08
-6.3787e-09
-2.57579e-09
2.1102e-05
2.10786e-05
2.10184e-05
2.09216e-05
2.07864e-05
2.06074e-05
2.03768e-05
2.00853e-05
1.97216e-05
1.92722e-05
1.87212e-05
1.805e-05
1.72382e-05
1.62628e-05
1.50998e-05
1.37248e-05
1.21145e-05
1.02488e-05
8.11409e-06
5.70634e-06
3.03538e-06
1.2901e-07
-2.96324e-06
-6.16767e-06
-9.38624e-06
-1.24998e-05
-1.53759e-05
-1.78802e-05
-1.98918e-05
-2.13191e-05
-2.21126e-05
-2.22729e-05
-2.18491e-05
-2.09299e-05
-1.96281e-05
-1.80644e-05
-1.63527e-05
-1.45912e-05
-1.28577e-05
-1.12089e-05
-9.68242e-06
-8.2996e-06
-7.0691e-06
-5.99023e-06
-5.05595e-06
-4.25529e-06
-3.57518e-06
-3.00176e-06
-2.52123e-06
-2.12045e-06
-1.78737e-06
-1.51124e-06
-1.28265e-06
-1.09353e-06
-9.36974e-07
-8.07092e-07
-6.98857e-07
-6.08026e-07
-5.31079e-07
-4.65173e-07
-4.08075e-07
-3.5807e-07
-3.13857e-07
-2.74443e-07
-2.39056e-07
-2.07101e-07
-1.78121e-07
-1.51793e-07
-1.27907e-07
-1.06357e-07
-8.70989e-08
-7.01228e-08
-5.54052e-08
-4.28813e-08
-3.24195e-08
-2.38188e-08
-1.68198e-08
-1.11477e-08
-6.49556e-09
-2.64141e-09
2.11287e-05
2.11061e-05
2.10482e-05
2.0955e-05
2.08249e-05
2.06523e-05
2.04297e-05
2.0148e-05
1.97958e-05
1.93598e-05
1.8824e-05
1.81698e-05
1.73761e-05
1.64197e-05
1.52754e-05
1.39175e-05
1.23208e-05
1.0463e-05
8.32751e-06
5.90739e-06
3.20943e-06
2.58968e-07
-2.89574e-06
-6.18033e-06
-9.49347e-06
-1.27098e-05
-1.56878e-05
-1.82822e-05
-2.0361e-05
-2.18238e-05
-2.26166e-05
-2.2741e-05
-2.22524e-05
-2.12498e-05
-1.98571e-05
-1.82052e-05
-1.64152e-05
-1.45895e-05
-1.28072e-05
-1.11244e-05
-9.57671e-06
-8.18331e-06
-6.95033e-06
-5.87478e-06
-4.94763e-06
-4.15637e-06
-3.48675e-06
-2.92406e-06
-2.45391e-06
-2.06279e-06
-1.73844e-06
-1.47e-06
-1.24811e-06
-1.06475e-06
-9.13119e-07
-7.8742e-07
-6.82699e-07
-5.94778e-07
-5.20201e-07
-4.56204e-07
-4.00641e-07
-3.5189e-07
-3.08731e-07
-2.70234e-07
-2.3567e-07
-2.04461e-07
-1.76155e-07
-1.50426e-07
-1.27061e-07
-1.05948e-07
-8.70446e-08
-7.03387e-08
-5.58081e-08
-4.33905e-08
-3.29594e-08
-2.43237e-08
-1.72394e-08
-1.14514e-08
-6.67652e-09
-2.71463e-09
2.11607e-05
2.11392e-05
2.10841e-05
2.09953e-05
2.08712e-05
2.07064e-05
2.04935e-05
2.02235e-05
1.98853e-05
1.94656e-05
1.89482e-05
1.83146e-05
1.75432e-05
1.661e-05
1.54888e-05
1.41522e-05
1.25726e-05
1.0725e-05
8.58941e-06
6.15507e-06
3.425e-06
4.21356e-07
-2.80934e-06
-6.19211e-06
-9.62175e-06
-1.29653e-05
-1.60699e-05
-1.87766e-05
-2.09394e-05
-2.24465e-05
-2.32382e-05
-2.33172e-05
-2.27473e-05
-2.16403e-05
-2.01347e-05
-1.83737e-05
-1.64877e-05
-1.45837e-05
-1.27422e-05
-1.10185e-05
-9.44577e-06
-8.04018e-06
-6.80479e-06
-5.73375e-06
-4.81567e-06
-4.03612e-06
-3.37944e-06
-2.82991e-06
-2.37246e-06
-1.99313e-06
-1.67938e-06
-1.42028e-06
-1.20649e-06
-1.0301e-06
-8.84422e-07
-7.63775e-07
-6.63291e-07
-5.7887e-07
-5.07138e-07
-4.45426e-07
-3.91699e-07
-3.44449e-07
-3.02553e-07
-2.65159e-07
-2.31582e-07
-2.01265e-07
-1.73761e-07
-1.48741e-07
-1.25988e-07
-1.0539e-07
-8.69028e-08
-7.0517e-08
-5.62127e-08
-4.39298e-08
-3.35474e-08
-2.48843e-08
-1.77123e-08
-1.17972e-08
-6.88025e-09
-2.78205e-09
2.11973e-05
2.11771e-05
2.11252e-05
2.10414e-05
2.09242e-05
2.07683e-05
2.05666e-05
2.03101e-05
1.9988e-05
1.95871e-05
1.90911e-05
1.84814e-05
1.7736e-05
1.68299e-05
1.57358e-05
1.44243e-05
1.28654e-05
1.10306e-05
8.89605e-06
6.44638e-06
3.68012e-06
6.15501e-07
-2.70326e-06
-6.20072e-06
-9.76741e-06
-1.32614e-05
-1.65166e-05
-1.93573e-05
-2.16206e-05
-2.31807e-05
-2.39705e-05
-2.39946e-05
-2.33268e-05
-2.20949e-05
-2.04548e-05
-1.85651e-05
-1.65665e-05
-1.45714e-05
-1.26619e-05
-1.08915e-05
-9.29075e-06
-7.87198e-06
-6.63463e-06
-5.56952e-06
-4.66247e-06
-3.89685e-06
-3.25543e-06
-2.72132e-06
-2.27867e-06
-1.91301e-06
-1.61154e-06
-1.36323e-06
-1.15878e-06
-9.9041e-07
-8.51589e-07
-7.36752e-07
-6.41137e-07
-5.60731e-07
-4.92253e-07
-4.33149e-07
-3.81516e-07
-3.35976e-07
-2.95524e-07
-2.5939e-07
-2.26939e-07
-1.97635e-07
-1.71036e-07
-1.4681e-07
-1.24736e-07
-1.04705e-07
-8.66759e-08
-7.06437e-08
-5.65918e-08
-4.44633e-08
-3.41425e-08
-2.5458e-08
-1.8198e-08
-1.215e-08
-7.08188e-09
-2.83895e-09
2.12376e-05
2.12187e-05
2.11703e-05
2.10922e-05
2.09826e-05
2.08366e-05
2.06472e-05
2.04058e-05
2.01016e-05
1.97215e-05
1.92495e-05
1.86665e-05
1.79502e-05
1.70748e-05
1.60114e-05
1.47288e-05
1.31939e-05
1.13747e-05
9.24265e-06
6.77737e-06
3.972e-06
8.40143e-07
-2.57696e-06
-6.20374e-06
-9.92613e-06
-1.35923e-05
-1.70206e-05
-2.00163e-05
-2.2396e-05
-2.40174e-05
-2.48047e-05
-2.47642e-05
-2.39822e-05
-2.26054e-05
-2.08107e-05
-1.87739e-05
-1.66479e-05
-1.45508e-05
-1.25658e-05
-1.07443e-05
-9.11341e-06
-7.68112e-06
-6.44266e-06
-5.38504e-06
-4.49096e-06
-3.74139e-06
-3.11731e-06
-2.60061e-06
-2.1746e-06
-1.82426e-06
-1.53649e-06
-1.30017e-06
-1.10609e-06
-9.4662e-07
-8.15396e-07
-7.07e-07
-6.16778e-07
-5.40809e-07
-4.75919e-07
-4.19684e-07
-3.70349e-07
-3.26688e-07
-2.87823e-07
-2.53074e-07
-2.21859e-07
-1.93662e-07
-1.68043e-07
-1.44668e-07
-1.23318e-07
-1.03886e-07
-8.63399e-08
-7.06814e-08
-5.6899e-08
-4.49394e-08
-3.46914e-08
-2.5993e-08
-1.86486e-08
-1.24688e-08
-7.25105e-09
-2.87192e-09
2.12805e-05
2.12631e-05
2.12185e-05
2.11463e-05
2.1045e-05
2.09096e-05
2.07334e-05
2.05082e-05
2.02233e-05
1.98657e-05
1.94196e-05
1.88656e-05
1.8181e-05
1.73392e-05
1.63098e-05
1.50592e-05
1.35516e-05
1.17507e-05
9.62319e-06
7.14279e-06
4.2967e-06
1.09305e-06
-2.43057e-06
-6.19889e-06
-1.00932e-05
-1.3951e-05
-1.75732e-05
-2.07432e-05
-2.32545e-05
-2.4945e-05
-2.57288e-05
-2.56144e-05
-2.47024e-05
-2.31621e-05
-2.1194e-05
-1.89942e-05
-1.67281e-05
-1.45201e-05
-1.24538e-05
-1.05783e-05
-8.91622e-06
-7.47074e-06
-6.23235e-06
-5.18389e-06
-4.30465e-06
-3.57302e-06
-2.96811e-06
-2.47052e-06
-2.06266e-06
-1.72896e-06
-1.45602e-06
-1.23265e-06
-1.04973e-06
-8.99828e-07
-7.76774e-07
-6.75303e-07
-5.90873e-07
-5.1966e-07
-4.58602e-07
-4.0542e-07
-3.58527e-07
-3.16862e-07
-2.79686e-07
-2.46413e-07
-2.1651e-07
-1.89482e-07
-1.64889e-07
-1.42395e-07
-1.21786e-07
-1.02963e-07
-8.59071e-08
-7.06294e-08
-5.71252e-08
-4.53442e-08
-3.51788e-08
-2.6475e-08
-1.90528e-08
-1.27466e-08
-7.38609e-09
-2.88568e-09
2.1325e-05
2.13091e-05
2.12684e-05
2.12025e-05
2.11097e-05
2.09854e-05
2.08231e-05
2.06148e-05
2.03501e-05
2.00162e-05
1.95973e-05
1.90741e-05
1.84231e-05
1.76171e-05
1.66241e-05
1.54084e-05
1.39309e-05
1.21511e-05
1.00303e-05
7.53603e-06
4.64889e-06
1.37079e-06
-2.26505e-06
-6.1843e-06
-1.02638e-05
-1.43294e-05
-1.81638e-05
-2.15255e-05
-2.41819e-05
-2.59486e-05
-2.67279e-05
-2.65308e-05
-2.54744e-05
-2.37536e-05
-2.15959e-05
-1.92194e-05
-1.68034e-05
-1.4478e-05
-1.23269e-05
-1.03959e-05
-8.70252e-06
-7.24478e-06
-6.00792e-06
-4.9703e-06
-4.10759e-06
-3.3955e-06
-2.81123e-06
-2.33405e-06
-1.94549e-06
-1.62938e-06
-1.37205e-06
-1.16227e-06
-9.91036e-07
-8.51149e-07
-7.36644e-07
-6.42418e-07
-5.64039e-07
-4.9778e-07
-4.40697e-07
-3.9067e-07
-3.46296e-07
-3.06693e-07
-2.71266e-07
-2.39525e-07
-2.10983e-07
-1.85158e-07
-1.6161e-07
-1.40002e-07
-1.20129e-07
-1.01907e-07
-8.53337e-08
-7.04349e-08
-5.72133e-08
-4.56211e-08
-3.5552e-08
-2.68574e-08
-1.93713e-08
-1.29516e-08
-7.46228e-09
-2.86241e-09
2.13698e-05
2.13556e-05
2.13189e-05
2.12593e-05
2.11752e-05
2.10622e-05
2.0914e-05
2.07229e-05
2.04789e-05
2.01694e-05
1.97785e-05
1.92868e-05
1.86707e-05
1.79019e-05
1.69472e-05
1.57684e-05
1.43232e-05
1.25669e-05
1.04552e-05
7.94897e-06
5.02172e-06
1.66852e-06
-2.08259e-06
-6.15879e-06
-1.04328e-05
-1.47189e-05
-1.87797e-05
-2.23476e-05
-2.51605e-05
-2.70096e-05
-2.77834e-05
-2.74957e-05
-2.62824e-05
-2.43668e-05
-2.20066e-05
-1.94434e-05
-1.68707e-05
-1.44241e-05
-1.21867e-05
-1.02001e-05
-8.47657e-06
-7.00804e-06
-5.77433e-06
-4.74912e-06
-3.90435e-06
-3.21302e-06
-2.65042e-06
-2.19452e-06
-1.82595e-06
-1.52799e-06
-1.28669e-06
-1.09081e-06
-9.31514e-07
-8.01845e-07
-6.96066e-07
-6.09233e-07
-5.37017e-07
-4.75782e-07
-4.22712e-07
-3.75856e-07
-3.3401e-07
-2.96482e-07
-2.62825e-07
-2.32639e-07
-2.05477e-07
-1.80863e-07
-1.58353e-07
-1.37612e-07
-1.18447e-07
-1.00796e-07
-8.46816e-08
-7.01476e-08
-5.7206e-08
-4.58104e-08
-3.58528e-08
-2.71866e-08
-1.96562e-08
-1.3141e-08
-7.53859e-09
-2.85054e-09
2.1414e-05
2.14013e-05
2.13685e-05
2.13152e-05
2.12398e-05
2.11379e-05
2.10039e-05
2.083e-05
2.06065e-05
2.03213e-05
1.99584e-05
1.94985e-05
1.89176e-05
1.81867e-05
1.72709e-05
1.61302e-05
1.4719e-05
1.29881e-05
1.08877e-05
8.37193e-06
5.4067e-06
1.97972e-06
-1.88673e-06
-6.12214e-06
-1.05956e-05
-1.51098e-05
-1.9407e-05
-2.31912e-05
-2.61694e-05
-2.81053e-05
-2.88727e-05
-2.84882e-05
-2.71082e-05
-2.49875e-05
-2.24159e-05
-1.966e-05
-1.69276e-05
-1.43592e-05
-1.20361e-05
-9.99559e-06
-8.24364e-06
-6.76615e-06
-5.53723e-06
-4.52574e-06
-3.69993e-06
-3.03009e-06
-2.48967e-06
-2.05538e-06
-1.70701e-06
-1.4273e-06
-1.20204e-06
-1.02001e-06
-8.72592e-07
-7.53087e-07
-6.55994e-07
-5.76517e-07
-5.10417e-07
-4.54145e-07
-4.05012e-07
-3.61251e-07
-3.2187e-07
-2.86375e-07
-2.54466e-07
-2.25827e-07
-2.00039e-07
-1.76622e-07
-1.55122e-07
-1.35207e-07
-1.16701e-07
-9.95737e-08
-8.38779e-08
-6.9682e-08
-5.70093e-08
-4.5814e-08
-3.59833e-08
-2.73681e-08
-1.98188e-08
-1.32327e-08
-7.53958e-09
-2.78696e-09
2.14563e-05
2.14451e-05
2.14161e-05
2.13689e-05
2.13018e-05
2.12108e-05
2.10903e-05
2.09331e-05
2.07297e-05
2.0468e-05
2.01326e-05
1.97038e-05
1.91575e-05
1.84639e-05
1.7587e-05
1.64845e-05
1.51079e-05
1.34037e-05
1.13166e-05
8.7938e-06
5.79368e-06
2.29623e-06
-1.68264e-06
-6.07532e-06
-1.0748e-05
-1.54923e-05
-2.00298e-05
-2.40356e-05
-2.71838e-05
-2.92092e-05
-2.99693e-05
-2.94839e-05
-2.79314e-05
-2.55999e-05
-2.28133e-05
-1.98636e-05
-1.69728e-05
-1.42849e-05
-1.18793e-05
-9.78771e-06
-8.00997e-06
-6.52558e-06
-5.30291e-06
-4.30608e-06
-3.49971e-06
-2.85151e-06
-2.33319e-06
-1.92031e-06
-1.59182e-06
-1.32998e-06
-1.12036e-06
-9.51779e-07
-8.1587e-07
-7.06222e-07
-6.17561e-07
-5.45226e-07
-4.85047e-07
-4.33547e-07
-3.8817e-07
-3.47343e-07
-3.10296e-07
-2.76739e-07
-2.46518e-07
-2.19389e-07
-1.94946e-07
-1.72693e-07
-1.5216e-07
-1.33016e-07
-1.15107e-07
-9.84423e-08
-8.31121e-08
-6.92154e-08
-5.67901e-08
-4.57908e-08
-3.60974e-08
-2.75535e-08
-2.00104e-08
-1.33778e-08
-7.6115e-09
-2.79128e-09
2.14956e-05
2.14858e-05
2.14604e-05
2.14189e-05
2.13596e-05
2.12788e-05
2.11711e-05
2.10296e-05
2.08451e-05
2.06058e-05
2.02963e-05
1.98972e-05
1.93839e-05
1.87261e-05
1.78867e-05
1.68215e-05
1.54791e-05
1.3802e-05
1.17294e-05
9.20222e-06
6.17109e-06
2.60825e-06
-1.47703e-06
-6.02067e-06
-1.08867e-05
-1.58563e-05
-2.06311e-05
-2.48574e-05
-2.81756e-05
-3.02906e-05
-3.10431e-05
-3.04557e-05
-2.87296e-05
-2.61877e-05
-2.31886e-05
-2.00497e-05
-1.7006e-05
-1.42044e-05
-1.17214e-05
-9.58302e-06
-7.78259e-06
-6.29335e-06
-5.07807e-06
-4.0963e-06
-3.3092e-06
-2.68211e-06
-2.18517e-06
-1.79285e-06
-1.48337e-06
-1.23852e-06
-1.04368e-06
-8.87773e-07
-7.62691e-07
-6.62323e-07
-5.81618e-07
-5.1602e-07
-4.61404e-07
-4.14355e-07
-3.72444e-07
-3.34297e-07
-2.99378e-07
-2.67604e-07
-2.38958e-07
-2.13259e-07
-1.901e-07
-1.68955e-07
-1.49329e-07
-1.30888e-07
-1.13505e-07
-9.72299e-08
-8.22018e-08
-6.85548e-08
-5.63454e-08
-4.55294e-08
-3.59773e-08
-2.7522e-08
-2.00105e-08
-1.33599e-08
-7.54945e-09
-2.6974e-09
2.15308e-05
2.15223e-05
2.15002e-05
2.14639e-05
2.14117e-05
2.13402e-05
2.12441e-05
2.1117e-05
2.09498e-05
2.07309e-05
2.04452e-05
2.00734e-05
1.95906e-05
1.89661e-05
1.81617e-05
1.71315e-05
1.58215e-05
1.41707e-05
1.21133e-05
9.58401e-06
6.52623e-06
2.90466e-06
-1.27811e-06
-5.96187e-06
-1.10092e-05
-1.61923e-05
-2.11936e-05
-2.56317e-05
-2.91142e-05
-3.13161e-05
-3.20608e-05
-3.13738e-05
-2.94792e-05
-2.67344e-05
-2.35323e-05
-2.02147e-05
-1.70283e-05
-1.41222e-05
-1.15689e-05
-9.38892e-06
-7.56921e-06
-6.077e-06
-4.86977e-06
-3.90279e-06
-3.13409e-06
-2.52688e-06
-2.0499e-06
-1.67668e-06
-1.38478e-06
-1.15555e-06
-9.74235e-07
-8.29878e-07
-7.1465e-07
-6.22746e-07
-5.49314e-07
-4.8988e-07
-4.40339e-07
-3.97312e-07
-3.58493e-07
-3.2271e-07
-2.89659e-07
-2.59465e-07
-2.32245e-07
-2.07865e-07
-1.85904e-07
-1.65794e-07
-1.47004e-07
-1.29194e-07
-1.12262e-07
-9.63049e-08
-8.15124e-08
-6.80595e-08
-5.60248e-08
-4.53672e-08
-3.59477e-08
-2.75856e-08
-2.01193e-08
-1.3468e-08
-7.6256e-09
-2.72687e-09
2.15611e-05
2.15537e-05
2.15344e-05
2.15026e-05
2.14567e-05
2.13933e-05
2.13075e-05
2.11928e-05
2.10408e-05
2.08399e-05
2.05753e-05
2.02275e-05
1.97717e-05
1.91767e-05
1.84036e-05
1.74049e-05
1.61245e-05
1.44981e-05
1.24554e-05
9.92573e-06
6.84588e-06
3.17352e-06
-1.09512e-06
-5.90383e-06
-1.11145e-05
-1.64913e-05
-2.16999e-05
-2.6333e-05
-2.99676e-05
-3.22501e-05
-3.29874e-05
-3.22075e-05
-3.01561e-05
-2.72238e-05
-2.38357e-05
-2.03563e-05
-1.70422e-05
-1.40434e-05
-1.14288e-05
-9.2132e-06
-7.37771e-06
-5.88403e-06
-4.68486e-06
-3.73165e-06
-2.97968e-06
-2.39035e-06
-1.93121e-06
-1.57499e-06
-1.29866e-06
-1.0832e-06
-9.13739e-07
-7.79455e-07
-6.72812e-07
-5.88296e-07
-5.21235e-07
-4.67206e-07
-4.22094e-07
-3.82541e-07
-3.46349e-07
-3.12538e-07
-2.81035e-07
-2.52162e-07
-2.26162e-07
-2.02939e-07
-1.82049e-07
-1.62869e-07
-1.44826e-07
-1.27569e-07
-1.11015e-07
-9.53084e-08
-8.06905e-08
-6.73797e-08
-5.54795e-08
-4.49542e-08
-3.56557e-08
-2.73891e-08
-1.99819e-08
-1.33518e-08
-7.50698e-09
-2.61014e-09
2.15856e-05
2.15791e-05
2.15622e-05
2.15341e-05
2.14934e-05
2.14367e-05
2.13593e-05
2.12551e-05
2.11157e-05
2.09298e-05
2.06827e-05
2.0355e-05
1.99219e-05
1.93518e-05
1.86051e-05
1.76332e-05
1.63781e-05
1.47727e-05
1.27434e-05
1.02144e-05
7.117e-06
3.40277e-06
-9.37795e-07
-5.85223e-06
-1.12022e-05
-1.67455e-05
-2.21335e-05
-2.69364e-05
-3.07041e-05
-3.30573e-05
-3.3788e-05
-3.2926e-05
-3.07369e-05
-2.76408e-05
-2.40917e-05
-2.04734e-05
-1.70507e-05
-1.39741e-05
-1.13085e-05
-9.06382e-06
-7.21592e-06
-5.72179e-06
-4.53e-06
-3.58879e-06
-2.85115e-06
-2.27698e-06
-1.8329e-06
-1.491e-06
-1.22774e-06
-1.02378e-06
-8.64158e-07
-7.38199e-07
-6.38645e-07
-5.60246e-07
-4.98482e-07
-4.48956e-07
-4.0752e-07
-3.70818e-07
-3.36739e-07
-3.0448e-07
-2.74178e-07
-2.46341e-07
-2.21325e-07
-1.99066e-07
-1.79086e-07
-1.60709e-07
-1.43311e-07
-1.26521e-07
-1.10275e-07
-9.47566e-08
-8.0257e-08
-6.70368e-08
-5.52254e-08
-4.47945e-08
-3.55891e-08
-2.74006e-08
-2.00448e-08
-1.34348e-08
-7.58469e-09
-2.65938e-09
2.16036e-05
2.15978e-05
2.15827e-05
2.15575e-05
2.15207e-05
2.14691e-05
2.13983e-05
2.13021e-05
2.11724e-05
2.0998e-05
2.07644e-05
2.04522e-05
2.00367e-05
1.94859e-05
1.87597e-05
1.78087e-05
1.65735e-05
1.49848e-05
1.29662e-05
1.04382e-05
7.32766e-06
3.58112e-06
-8.15497e-07
-5.81295e-06
-1.12731e-05
-1.69487e-05
-2.24799e-05
-2.74192e-05
-3.1294e-05
-3.37044e-05
-3.44295e-05
-3.3501e-05
-3.12004e-05
-2.79723e-05
-2.42943e-05
-2.05656e-05
-1.70575e-05
-1.39201e-05
-1.12151e-05
-8.94801e-06
-7.09085e-06
-5.5967e-06
-4.41089e-06
-3.47915e-06
-2.75269e-06
-2.1903e-06
-1.7579e-06
-1.42706e-06
-1.17388e-06
-9.78747e-07
-8.26629e-07
-7.0698e-07
-6.12787e-07
-5.39025e-07
-4.81295e-07
-4.35205e-07
-3.96559e-07
-3.61987e-07
-3.29443e-07
-2.9827e-07
-2.68789e-07
-2.41666e-07
-2.17358e-07
-1.95824e-07
-1.76556e-07
-1.5882e-07
-1.41943e-07
-1.25531e-07
-1.09528e-07
-9.41505e-08
-7.97303e-08
-6.65662e-08
-5.48117e-08
-4.4447e-08
-3.53127e-08
-2.71889e-08
-1.98806e-08
-1.32967e-08
-7.45898e-09
-2.54921e-09
2.16147e-05
2.16093e-05
2.15954e-05
2.15721e-05
2.15379e-05
2.14898e-05
2.14233e-05
2.13324e-05
2.12091e-05
2.10425e-05
2.08179e-05
2.05162e-05
2.01124e-05
1.95746e-05
1.88623e-05
1.79254e-05
1.67036e-05
1.51263e-05
1.31149e-05
1.05876e-05
7.46788e-06
3.69905e-06
-7.3633e-07
-5.79133e-06
-1.1328e-05
-1.70959e-05
-2.27273e-05
-2.77622e-05
-3.17124e-05
-3.41629e-05
-3.4884e-05
-3.39083e-05
-3.15287e-05
-2.82077e-05
-2.44392e-05
-2.06336e-05
-1.70662e-05
-1.38867e-05
-1.11545e-05
-8.87204e-06
-7.00845e-06
-5.51421e-06
-4.33239e-06
-3.40697e-06
-2.68799e-06
-2.13346e-06
-1.70886e-06
-1.38544e-06
-1.139e-06
-9.49739e-07
-8.02575e-07
-6.87061e-07
-5.96367e-07
-5.25643e-07
-4.7057e-07
-4.26749e-07
-3.89934e-07
-3.56726e-07
-3.25122e-07
-2.9457e-07
-2.6553e-07
-2.38797e-07
-2.14905e-07
-1.93835e-07
-1.75051e-07
-1.57769e-07
-1.41271e-07
-1.25137e-07
-1.0931e-07
-9.40276e-08
-7.96517e-08
-6.65101e-08
-5.4777e-08
-4.44406e-08
-3.53398e-08
-2.72471e-08
-1.99592e-08
-1.33804e-08
-7.53468e-09
-2.5989e-09
2.16184e-05
2.16132e-05
2.15999e-05
2.15775e-05
2.15445e-05
2.1498e-05
2.14335e-05
2.13451e-05
2.12249e-05
2.10619e-05
2.08416e-05
2.05449e-05
2.01467e-05
1.96151e-05
1.89094e-05
1.79792e-05
1.67637e-05
1.51915e-05
1.31832e-05
1.06556e-05
7.53055e-06
3.74966e-06
-7.06209e-07
-5.79133e-06
-1.13679e-05
-1.71837e-05
-2.28672e-05
-2.79516e-05
-3.19408e-05
-3.44121e-05
-3.51307e-05
-3.41299e-05
-3.17089e-05
-2.83391e-05
-2.45235e-05
-2.06778e-05
-1.70794e-05
-1.38779e-05
-1.11311e-05
-8.84026e-06
-6.97284e-06
-5.47801e-06
-4.29769e-06
-3.37499e-06
-2.65931e-06
-2.10833e-06
-1.6873e-06
-1.36731e-06
-1.12399e-06
-9.37416e-07
-7.92477e-07
-6.78776e-07
-5.89595e-07
-5.20184e-07
-4.66274e-07
-4.2345e-07
-3.87418e-07
-3.5475e-07
-3.23453e-07
-2.93037e-07
-2.6405e-07
-2.37369e-07
-2.13582e-07
-1.92689e-07
-1.74133e-07
-1.57096e-07
-1.40818e-07
-1.24856e-07
-1.09143e-07
-9.39226e-08
-7.95722e-08
-6.64377e-08
-5.47067e-08
-4.43746e-08
-3.52806e-08
-2.71936e-08
-1.99059e-08
-1.33203e-08
-7.46535e-09
-2.52548e-09
2.16145e-05
2.16094e-05
2.15959e-05
2.15734e-05
2.15402e-05
2.14934e-05
2.14286e-05
2.13398e-05
2.12192e-05
2.10556e-05
2.08347e-05
2.05373e-05
2.01384e-05
1.96059e-05
1.88991e-05
1.79679e-05
1.67511e-05
1.51777e-05
1.3168e-05
1.06387e-05
7.51209e-06
3.72949e-06
-7.28108e-07
-5.81493e-06
-1.1393e-05
-1.72103e-05
-2.28949e-05
-2.798e-05
-3.19695e-05
-3.44404e-05
-3.51582e-05
-3.41563e-05
-3.17339e-05
-2.83627e-05
-2.45456e-05
-2.06984e-05
-1.70986e-05
-1.38955e-05
-1.11473e-05
-8.85498e-06
-6.98618e-06
-5.49005e-06
-4.30853e-06
-3.38469e-06
-2.66797e-06
-2.11605e-06
-1.6942e-06
-1.37349e-06
-1.12954e-06
-9.42393e-07
-7.96891e-07
-6.82645e-07
-5.92959e-07
-5.23108e-07
-4.68832e-07
-4.257e-07
-3.89383e-07
-3.56422e-07
-3.24809e-07
-2.94061e-07
-2.64753e-07
-2.37799e-07
-2.13813e-07
-1.92804e-07
-1.74212e-07
-1.57195e-07
-1.4097e-07
-1.25066e-07
-1.09401e-07
-9.42082e-08
-7.98661e-08
-6.67236e-08
-5.49739e-08
-4.46169e-08
-3.54945e-08
-2.73762e-08
-2.00541e-08
-1.34313e-08
-7.53813e-09
-2.55485e-09
2.16032e-05
2.15978e-05
2.15835e-05
2.15598e-05
2.1525e-05
2.1476e-05
2.14085e-05
2.13165e-05
2.11919e-05
2.10237e-05
2.07973e-05
2.04935e-05
2.00874e-05
1.9547e-05
1.88317e-05
1.78916e-05
1.66662e-05
1.50849e-05
1.30692e-05
1.05373e-05
7.41272e-06
3.63883e-06
-8.01688e-07
-5.86173e-06
-1.14031e-05
-1.71752e-05
-2.28099e-05
-2.78468e-05
-3.17977e-05
-3.42474e-05
-3.49661e-05
-3.39869e-05
-3.16032e-05
-2.82778e-05
-2.45051e-05
-2.06951e-05
-1.71234e-05
-1.39395e-05
-1.12028e-05
-8.91601e-06
-7.0483e-06
-5.55018e-06
-4.36476e-06
-3.43598e-06
-2.71388e-06
-2.15653e-06
-1.72946e-06
-1.4039e-06
-1.15558e-06
-9.64566e-07
-8.15707e-07
-6.98552e-07
-6.06336e-07
-5.3428e-07
-4.78094e-07
-4.3333e-07
-3.95645e-07
-3.61546e-07
-3.28985e-07
-2.97435e-07
-2.67435e-07
-2.39881e-07
-2.15386e-07
-1.93966e-07
-1.75062e-07
-1.57834e-07
-1.41483e-07
-1.25519e-07
-1.09835e-07
-9.46392e-08
-8.02933e-08
-6.71352e-08
-5.53542e-08
-4.49517e-08
-3.57735e-08
-2.75939e-08
-2.02091e-08
-1.35255e-08
-7.57643e-09
-2.54147e-09
2.15846e-05
2.15786e-05
2.1563e-05
2.15371e-05
2.14992e-05
2.14463e-05
2.13739e-05
2.12758e-05
2.11438e-05
2.09668e-05
2.07301e-05
2.04146e-05
1.99952e-05
1.944e-05
1.8709e-05
1.77527e-05
1.65115e-05
1.49163e-05
1.28907e-05
1.03551e-05
7.23656e-06
3.48172e-06
-9.23302e-07
-5.929e-06
-1.13968e-05
-1.70792e-05
-2.26158e-05
-2.75584e-05
-3.14343e-05
-3.38432e-05
-3.45646e-05
-3.36305e-05
-3.13231e-05
-2.8088e-05
-2.44029e-05
-2.06671e-05
-1.71519e-05
-1.40071e-05
-1.12948e-05
-9.02066e-06
-7.15671e-06
-5.65619e-06
-4.46446e-06
-3.52718e-06
-2.7956e-06
-2.22856e-06
-1.79206e-06
-1.45768e-06
-1.20137e-06
-1.00335e-06
-8.48435e-07
-7.26087e-07
-6.29385e-07
-5.53421e-07
-4.93838e-07
-4.46172e-07
-4.06076e-07
-3.70032e-07
-3.35922e-07
-3.03124e-07
-2.72083e-07
-2.43625e-07
-2.18333e-07
-1.9622e-07
-1.76747e-07
-1.59086e-07
-1.4244e-07
-1.26303e-07
-1.10534e-07
-9.53059e-08
-8.09456e-08
-6.7766e-08
-5.59435e-08
-4.54771e-08
-3.62176e-08
-2.79479e-08
-2.04719e-08
-1.37012e-08
-7.67113e-09
-2.55861e-09
2.15592e-05
2.15524e-05
2.15348e-05
2.15057e-05
2.14635e-05
2.14049e-05
2.13254e-05
2.12185e-05
2.10759e-05
2.08864e-05
2.06351e-05
2.03027e-05
1.98643e-05
1.92882e-05
1.85348e-05
1.75555e-05
1.62922e-05
1.46779e-05
1.26388e-05
1.00995e-05
6.99115e-06
3.26559e-06
-1.08642e-06
-6.01205e-06
-1.13725e-05
-1.69249e-05
-2.232e-05
-2.71275e-05
-3.08966e-05
-3.32479e-05
-3.39735e-05
-3.3104e-05
-3.09058e-05
-2.78001e-05
-2.42413e-05
-2.06132e-05
-1.71808e-05
-1.40942e-05
-1.14187e-05
-9.16423e-06
-7.30701e-06
-5.80413e-06
-4.60419e-06
-3.65537e-06
-2.91067e-06
-2.33009e-06
-1.88035e-06
-1.53351e-06
-1.26589e-06
-1.0579e-06
-8.94411e-07
-7.64721e-07
-6.61688e-07
-5.80213e-07
-5.15836e-07
-4.64075e-07
-4.20588e-07
-3.8183e-07
-3.45591e-07
-3.11111e-07
-2.78686e-07
-2.49029e-07
-2.2266e-07
-1.99588e-07
-1.79298e-07
-1.60992e-07
-1.43886e-07
-1.27459e-07
-1.11535e-07
-9.62371e-08
-8.18435e-08
-6.86301e-08
-5.67517e-08
-4.62017e-08
-3.68365e-08
-2.84499e-08
-2.08566e-08
-1.39747e-08
-7.83976e-09
-2.61836e-09
2.15274e-05
2.15196e-05
2.14995e-05
2.14663e-05
2.14186e-05
2.13528e-05
2.12642e-05
2.11462e-05
2.09902e-05
2.07847e-05
2.05147e-05
2.01609e-05
1.96984e-05
1.90959e-05
1.83143e-05
1.73062e-05
1.60155e-05
1.43778e-05
1.2323e-05
9.78037e-06
6.68686e-06
3.00041e-06
-1.28243e-06
-6.10496e-06
-1.13285e-05
-1.67165e-05
-2.19338e-05
-2.65725e-05
-3.02088e-05
-3.24889e-05
-3.32201e-05
-3.2431e-05
-3.03685e-05
-2.74242e-05
-2.40241e-05
-2.05326e-05
-1.72062e-05
-1.4195e-05
-1.1568e-05
-9.34014e-06
-7.49296e-06
-5.98832e-06
-4.7789e-06
-3.81614e-06
-3.05531e-06
-2.45789e-06
-1.99156e-06
-1.62905e-06
-1.34716e-06
-1.12658e-06
-9.52229e-07
-8.13233e-07
-7.02186e-07
-6.13746e-07
-5.43318e-07
-4.8639e-07
-4.38631e-07
-3.96461e-07
-3.57562e-07
-3.20998e-07
-2.86874e-07
-2.55748e-07
-2.28059e-07
-2.038e-07
-1.82485e-07
-1.63355e-07
-1.45648e-07
-1.28832e-07
-1.1269e-07
-9.72877e-08
-8.28429e-08
-6.95845e-08
-5.76393e-08
-4.69922e-08
-3.75054e-08
-2.89855e-08
-2.12592e-08
-1.42517e-08
-7.9978e-09
-2.65723e-09
2.149e-05
2.14811e-05
2.14579e-05
2.142e-05
2.13656e-05
2.12913e-05
2.11919e-05
2.10606e-05
2.08886e-05
2.06642e-05
2.03722e-05
1.99931e-05
1.95022e-05
1.88686e-05
1.80541e-05
1.70127e-05
1.56905e-05
1.40263e-05
1.19545e-05
9.40985e-06
6.33597e-06
2.69785e-06
-1.50152e-06
-6.2014e-06
-1.12637e-05
-1.64596e-05
-2.14711e-05
-2.59154e-05
-2.93999e-05
-3.1599e-05
-3.23367e-05
-3.16393e-05
-2.97319e-05
-2.69732e-05
-2.37569e-05
-2.04251e-05
-1.72242e-05
-1.43033e-05
-1.17353e-05
-9.5409e-06
-7.70737e-06
-6.20215e-06
-4.98275e-06
-4.00442e-06
-3.22517e-06
-2.60831e-06
-2.1227e-06
-1.74189e-06
-1.44325e-06
-1.20784e-06
-1.02064e-06
-8.70636e-07
-7.5011e-07
-6.53445e-07
-5.75883e-07
-5.12868e-07
-4.60071e-07
-4.13875e-07
-3.71834e-07
-3.32813e-07
-2.96695e-07
-2.63858e-07
-2.34634e-07
-2.08991e-07
-1.86474e-07
-1.66367e-07
-1.47934e-07
-1.30633e-07
-1.14204e-07
-9.86495e-08
-8.41202e-08
-7.07912e-08
-5.87572e-08
-4.79924e-08
-3.83646e-08
-2.96935e-08
-2.18184e-08
-1.46699e-08
-8.2779e-09
-2.78126e-09
2.1448e-05
2.14377e-05
2.14111e-05
2.13677e-05
2.13059e-05
2.12218e-05
2.11101e-05
2.09639e-05
2.07738e-05
2.05281e-05
2.02113e-05
1.98038e-05
1.92811e-05
1.86128e-05
1.77618e-05
1.66837e-05
1.53272e-05
1.36348e-05
1.15458e-05
9.00114e-06
5.95177e-06
2.37026e-06
-1.73369e-06
-6.29535e-06
-1.1178e-05
-1.61619e-05
-2.09478e-05
-2.5181e-05
-2.85013e-05
-3.06134e-05
-3.13581e-05
-3.07592e-05
-2.9019e-05
-2.64616e-05
-2.34465e-05
-2.02914e-05
-1.72311e-05
-1.44129e-05
-1.19132e-05
-9.75839e-06
-7.94221e-06
-6.4381e-06
-5.20892e-06
-4.21415e-06
-3.41497e-06
-2.77678e-06
-2.26986e-06
-1.8687e-06
-1.55136e-06
-1.29931e-06
-1.09765e-06
-9.35207e-07
-8.03979e-07
-6.98044e-07
-6.1246e-07
-5.42604e-07
-4.84137e-07
-4.33393e-07
-3.87794e-07
-3.45988e-07
-3.07622e-07
-2.72869e-07
-2.41942e-07
-2.14772e-07
-1.90926e-07
-1.69731e-07
-1.50477e-07
-1.32614e-07
-1.15839e-07
-1.00086e-07
-8.54387e-08
-7.20141e-08
-5.98727e-08
-4.89768e-08
-3.91991e-08
-3.03718e-08
-2.23452e-08
-1.50535e-08
-8.5196e-09
-2.86612e-09
2.14022e-05
2.13904e-05
2.13601e-05
2.13107e-05
2.12407e-05
2.1146e-05
2.10211e-05
2.08585e-05
2.06488e-05
2.03799e-05
2.00361e-05
1.9598e-05
1.90411e-05
1.83356e-05
1.74457e-05
1.63288e-05
1.49365e-05
1.32153e-05
1.11099e-05
8.56785e-06
5.54766e-06
2.02974e-06
-1.96948e-06
-6.38173e-06
-1.10724e-05
-1.5832e-05
-2.03813e-05
-2.43945e-05
-2.7545e-05
-2.95672e-05
-3.03191e-05
-2.98215e-05
-2.82539e-05
-2.59056e-05
-2.31014e-05
-2.01339e-05
-1.72248e-05
-1.45185e-05
-1.20944e-05
-9.98468e-06
-8.18949e-06
-6.68859e-06
-5.45045e-06
-4.43916e-06
-3.61931e-06
-2.9587e-06
-2.42915e-06
-2.00627e-06
-1.66885e-06
-1.39883e-06
-1.18149e-06
-1.00553e-06
-8.62668e-07
-7.46674e-07
-6.524e-07
-5.75136e-07
-5.10513e-07
-4.54811e-07
-4.05312e-07
-3.6045e-07
-3.19623e-07
-2.82795e-07
-2.50042e-07
-2.21245e-07
-1.95984e-07
-1.73621e-07
-1.53472e-07
-1.34978e-07
-1.17793e-07
-1.01788e-07
-8.69768e-08
-7.34209e-08
-6.11458e-08
-5.0101e-08
-4.01627e-08
-3.11735e-08
-2.29923e-08
-1.55532e-08
-8.86703e-09
-3.02701e-09
2.13537e-05
2.13404e-05
2.13061e-05
2.12505e-05
2.11718e-05
2.10659e-05
2.09268e-05
2.07469e-05
2.05166e-05
2.02233e-05
1.98512e-05
1.9381e-05
1.87884e-05
1.80445e-05
1.71144e-05
1.59579e-05
1.45295e-05
1.27801e-05
1.06599e-05
8.12327e-06
5.13643e-06
1.68753e-06
-2.20063e-06
-6.4568e-06
-1.09492e-05
-1.54796e-05
-1.97891e-05
-2.3581e-05
-2.65615e-05
-2.84942e-05
-2.9253e-05
-2.88558e-05
-2.746e-05
-2.53215e-05
-2.27311e-05
-1.99559e-05
-1.72038e-05
-1.46154e-05
-1.22725e-05
-1.02123e-05
-8.44142e-06
-6.94599e-06
-5.70021e-06
-4.67296e-06
-3.83244e-06
-3.14899e-06
-2.5962e-06
-2.15083e-06
-1.79251e-06
-1.50369e-06
-1.26987e-06
-1.07967e-06
-9.24531e-07
-7.97943e-07
-6.94529e-07
-6.09473e-07
-5.38359e-07
-4.77402e-07
-4.23751e-07
-3.75626e-07
-3.32185e-07
-2.93174e-07
-2.58523e-07
-2.2805e-07
-2.01333e-07
-1.77762e-07
-1.56671e-07