/*--------------------------------*- C++ -*----------------------------------*\
| =========                 |                                                 |
| \\      /  F ield         | OpenFOAM: The Open Source CFD Toolbox           |
|  \\    /   O peration     | Version:  2512                                  |
|   \\  /    A nd           | Website:  www.openfoam.com                      |
|    \\/     M anipulation  |                                                 |
\*---------------------------------------------------------------------------*/
FoamFile
{
    version     2.0;
    format      ascii;
    arch        "LSB;label=32;scalar=64";
    class       volScalarField;
    location    "100";
    object      p;
}
// * * * * * * * * * * * * * * * * * * * * * * * * * * * * * * * * * * * * * //

dimensions      [0 2 -2 0 0 0 0];

internalField   nonuniform List<scalar> 
335663
(
0.000520593
0.000519953
0.000518327
0.00051572
0.000512087
0.000507281
0.000501095
0.000493285
0.000483565
0.000471599
0.000456999
0.000439327
0.000418101
0.000392804
0.000362907
0.000327895
0.000287303
0.000240774
0.000188124
0.00012942
6.50706e-05
-4.09993e-06
-7.67854e-05
-0.000151176
-0.000224986
-0.000295563
-0.00036006
-0.000415701
-0.000460072
-0.000491422
-0.00050888
-0.000512563
-0.00050353
-0.000483604
-0.000455096
-0.00042051
-0.000382267
-0.000342509
-0.00030299
-0.000265038
-0.000229575
-0.000197167
-0.000168089
-0.000142397
-0.000119986
-0.000100651
-8.41253e-05
-7.01167e-05
-5.83264e-05
-4.84649e-05
-4.0261e-05
-3.34675e-05
-2.78642e-05
-2.32585e-05
-1.94846e-05
-1.64004e-05
-1.38852e-05
-1.18361e-05
-1.01662e-05
-8.80202e-06
-7.68327e-06
-6.76027e-06
-5.99306e-06
-5.34905e-06
-4.80172e-06
-4.32867e-06
-3.91105e-06
-3.53275e-06
-3.18072e-06
-2.84488e-06
-2.51866e-06
-2.19873e-06
-1.8851e-06
-1.58033e-06
-1.28917e-06
-1.01769e-06
-7.72752e-07
-5.60322e-07
-3.80419e-07
-2.66308e-07
0.000520785
0.000520151
0.00051854
0.000515957
0.000512358
0.000507595
0.000501462
0.000493716
0.000484073
0.000472195
0.000457694
0.000440131
0.000419021
0.000393844
0.000364063
0.000329152
0.000288637
0.000242144
0.000189472
0.000130672
6.61326e-05
-3.33204e-06
-7.64209e-05
-0.000151316
-0.000225708
-0.000296904
-0.000362001
-0.000418161
-0.000462908
-0.000494443
-0.000511875
-0.000515329
-0.000505904
-0.00048548
-0.000456434
-0.000421325
-0.000382616
-0.000342474
-0.000302662
-0.000264504
-0.000228912
-0.000196438
-0.000167345
-0.000141673
-0.000119307
-0.000100031
-8.35711e-05
-6.96298e-05
-5.79048e-05
-4.8104e-05
-3.99548e-05
-3.32096e-05
-2.7648e-05
-2.30781e-05
-1.93346e-05
-1.62762e-05
-1.37828e-05
-1.17518e-05
-1.00965e-05
-8.74416e-06
-7.63447e-06
-6.7183e-06
-5.95611e-06
-5.31587e-06
-4.77145e-06
-4.30093e-06
-3.8857e-06
-3.5099e-06
-3.16057e-06
-2.82773e-06
-2.50474e-06
-2.18825e-06
-1.87811e-06
-1.57676e-06
-1.28867e-06
-1.01971e-06
-7.76386e-07
-5.6442e-07
-3.83749e-07
-2.65981e-07
0.000521164
0.000520541
0.000518961
0.000516426
0.000512893
0.000508214
0.000502187
0.000494569
0.000485075
0.000473371
0.000459067
0.00044172
0.000420841
0.000395901
0.00036635
0.000331644
0.000291284
0.000244866
0.000192155
0.000133167
6.82562e-05
-1.78912e-06
-7.56772e-05
-0.000151574
-0.000227126
-0.000299556
-0.000365853
-0.00042305
-0.000468549
-0.000500455
-0.000517834
-0.000520831
-0.000510622
-0.000489205
-0.000459084
-0.000422934
-0.0003833
-0.000342397
-0.000302003
-0.000263438
-0.000227592
-0.000194992
-0.000165869
-0.000140239
-0.000117961
-9.88009e-05
-8.24716e-05
-6.86639e-05
-5.70681e-05
-4.73878e-05
-3.93475e-05
-3.26982e-05
-2.72199e-05
-2.27213e-05
-1.90384e-05
-1.60315e-05
-1.35813e-05
-1.15864e-05
-9.96059e-06
-8.63167e-06
-7.54011e-06
-6.6376e-06
-5.88556e-06
-5.25294e-06
-4.71455e-06
-4.24918e-06
-3.83881e-06
-3.46794e-06
-3.12385e-06
-2.79664e-06
-2.47967e-06
-2.1695e-06
-1.86578e-06
-1.57066e-06
-1.28828e-06
-1.02402e-06
-7.8384e-07
-5.72973e-07
-3.91047e-07
-2.69059e-07
0.00052172
0.000521116
0.000519581
0.000517117
0.000513681
0.000509127
0.000503255
0.000495825
0.000486553
0.000475105
0.000461091
0.000444064
0.000423528
0.000398941
0.000369734
0.000335335
0.000295209
0.000248909
0.00019615
0.000136891
7.14372e-05
5.36492e-07
-7.45349e-05
-0.000151922
-0.000229203
-0.000303478
-0.000371573
-0.000430326
-0.000476953
-0.000509416
-0.000526712
-0.000529018
-0.000517629
-0.00049472
-0.000462991
-0.000425287
-0.000384278
-0.000342248
-0.000300997
-0.000261834
-0.000225619
-0.000192837
-0.000163676
-0.00013811
-0.000115966
-9.69806e-05
-8.08453e-05
-6.72357e-05
-5.58318e-05
-4.633e-05
-3.8451e-05
-3.1944e-05
-2.65889e-05
-2.21958e-05
-1.86027e-05
-1.56718e-05
-1.32857e-05
-1.13439e-05
-9.76144e-06
-8.46687e-06
-7.40175e-06
-6.51908e-06
-5.78173e-06
-5.16013e-06
-4.6304e-06
-4.17241e-06
-3.76889e-06
-3.40488e-06
-3.06793e-06
-2.7483e-06
-2.43936e-06
-2.13756e-06
-1.84234e-06
-1.55551e-06
-1.28073e-06
-1.02277e-06
-7.86903e-07
-5.77718e-07
-3.94644e-07
-2.68965e-07
0.000522443
0.000521861
0.000520384
0.000518013
0.000514703
0.000510312
0.000504641
0.000497455
0.000488472
0.000477359
0.000463723
0.000447116
0.000427029
0.000402906
0.000374152
0.000340162
0.000300353
0.000254221
0.000201412
0.000141815
7.56636e-05
3.65256e-06
-7.29657e-05
-0.000152312
-0.000231874
-0.000308596
-0.000379081
-0.000439907
-0.000488038
-0.000521239
-0.00053842
-0.000539797
-0.000526828
-0.000501931
-0.000468067
-0.000428311
-0.000385494
-0.000341989
-0.000299625
-0.000259692
-0.000223006
-0.000189996
-0.000160794
-0.00013532
-0.000113356
-9.46023e-05
-7.87226e-05
-6.53732e-05
-5.42205e-05
-4.49523e-05
-3.72842e-05
-3.09629e-05
-2.57688e-05
-2.15135e-05
-1.80377e-05
-1.52061e-05
-1.29035e-05
-1.10312e-05
-9.50525e-06
-8.25549e-06
-7.22494e-06
-6.36833e-06
-5.65048e-06
-5.04374e-06
-4.52589e-06
-4.07812e-06
-3.68407e-06
-3.32935e-06
-3.00187e-06
-2.69206e-06
-2.39333e-06
-2.10203e-06
-1.81738e-06
-1.5408e-06
-1.27543e-06
-1.02537e-06
-7.9507e-07
-5.88396e-07
-4.04419e-07
-2.7422e-07
0.000523314
0.00052276
0.000521354
0.000519094
0.000515936
0.000511741
0.000506315
0.000499424
0.000490791
0.000480084
0.000466909
0.000450812
0.000431275
0.000407721
0.000379528
0.000346047
0.000306639
0.000260729
0.000207883
0.000147895
8.09151e-05
7.56473e-06
-7.09365e-05
-0.000152683
-0.000235058
-0.00031481
-0.000388266
-0.000451679
-0.000501687
-0.000535808
-0.000552837
-0.000553043
-0.000538094
-0.000510716
-0.000474203
-0.000431914
-0.000386879
-0.000341579
-0.000297868
-0.000257011
-0.000219769
-0.000186499
-0.000157261
-0.000131911
-0.000110175
-9.1708e-05
-7.6143e-05
-6.31122e-05
-5.22663e-05
-4.32828e-05
-3.5871e-05
-2.97754e-05
-2.47764e-05
-2.06881e-05
-1.73543e-05
-1.46429e-05
-1.24413e-05
-1.06527e-05
-9.19478e-06
-7.99878e-06
-7.00958e-06
-6.18414e-06
-5.48967e-06
-4.90083e-06
-4.39738e-06
-3.96198e-06
-3.57929e-06
-3.23555e-06
-2.91901e-06
-2.62031e-06
-2.3329e-06
-2.05311e-06
-1.77994e-06
-1.51447e-06
-1.2593e-06
-1.01783e-06
-7.93712e-07
-5.90106e-07
-4.05946e-07
-2.72781e-07
0.000524313
0.000523791
0.000522466
0.000520335
0.000517352
0.000513383
0.000508238
0.000501688
0.000493459
0.000483221
0.00047058
0.000455077
0.00043618
0.000413293
0.00038576
0.000352884
0.000313963
0.000268339
0.000215477
0.000155069
8.71541e-05
1.22675e-05
-6.8417e-05
-0.00015297
-0.000238656
-0.000321996
-0.000398987
-0.000465487
-0.000517741
-0.000552959
-0.000569796
-0.000568588
-0.00055126
-0.000520917
-0.000481257
-0.000435981
-0.000388352
-0.000340967
-0.000295708
-0.000253801
-0.000215937
-0.000182388
-0.000153129
-0.000127939
-0.000106477
-8.83523e-05
-7.31573e-05
-6.04991e-05
-5.00107e-05
-4.13578e-05
-3.42434e-05
-2.8409e-05
-2.36356e-05
-1.97402e-05
-1.65705e-05
-1.39981e-05
-1.19135e-05
-1.02219e-05
-8.84272e-06
-7.70907e-06
-6.768e-06
-5.97909e-06
-5.31237e-06
-4.74516e-06
-4.25941e-06
-3.83937e-06
-3.47073e-06
-3.14033e-06
-2.83674e-06
-2.5508e-06
-2.27606e-06
-2.00887e-06
-1.74805e-06
-1.4944e-06
-1.25002e-06
-1.01763e-06
-8.00114e-07
-5.99965e-07
-4.15766e-07
-2.78706e-07
0.000525418
0.000524931
0.000523696
0.000521706
0.000518918
0.000515199
0.000510366
0.000504194
0.000496415
0.000486701
0.000474657
0.000459818
0.000441642
0.00041951
0.000392728
0.000360549
0.000322198
0.000276926
0.000224087
0.000163247
9.43226e-05
1.77416e-05
-6.53822e-05
-0.000153101
-0.000242552
-0.00033
-0.000411061
-0.000481129
-0.000535986
-0.000572473
-0.000589075
-0.000586209
-0.00056611
-0.000532338
-0.000489064
-0.000440384
-0.000389824
-0.000340107
-0.000293133
-0.000250081
-0.000211552
-0.00017772
-0.000148463
-0.000123471
-0.000102333
-8.45999e-05
-6.98253e-05
-5.75876e-05
-4.75006e-05
-3.9218e-05
-3.24352e-05
-2.68914e-05
-2.23685e-05
-1.86869e-05
-1.56988e-05
-1.32803e-05
-1.1325e-05
-9.74059e-06
-8.44823e-06
-7.38309e-06
-6.49475e-06
-5.74584e-06
-5.10962e-06
-4.56636e-06
-4.10035e-06
-3.69749e-06
-3.34447e-06
-3.02867e-06
-2.73896e-06
-2.46638e-06
-2.20464e-06
-1.95013e-06
-1.70166e-06
-1.45976e-06
-1.2261e-06
-1.00283e-06
-7.92157e-07
-5.96024e-07
-4.13009e-07
-2.7482e-07
0.000526602
0.000526153
0.000525014
0.000523177
0.000520598
0.000517148
0.00051265
0.000506887
0.000499593
0.000490444
0.000479047
0.000464932
0.000447544
0.00042624
0.00040029
0.000368891
0.00033119
0.000286339
0.000233571
0.000172312
0.000102335
2.39454e-05
-6.18211e-05
-0.000153008
-0.000246619
-0.000338641
-0.000424262
-0.00049835
-0.000556145
-0.000594061
-0.000610384
-0.000605625
-0.000582383
-0.000544745
-0.00049743
-0.00044498
-0.000391205
-0.000338958
-0.000290147
-0.000245884
-0.000206671
-0.000172568
-0.000143344
-0.000118592
-9.78234e-05
-8.05287e-05
-6.62188e-05
-5.44426e-05
-4.47943e-05
-3.69146e-05
-3.04918e-05
-2.52625e-05
-2.10102e-05
-1.75595e-05
-1.47677e-05
-1.25158e-05
-1.07007e-05
-9.2326e-06
-8.03449e-06
-7.04379e-06
-6.21291e-06
-5.5079e-06
-4.90557e-06
-4.38935e-06
-3.94597e-06
-3.56292e-06
-3.22778e-06
-2.92836e-06
-2.65378e-06
-2.39529e-06
-2.14681e-06
-1.9049e-06
-1.66842e-06
-1.43777e-06
-1.21428e-06
-9.99594e-07
-7.95341e-07
-6.02984e-07
-4.2085e-07
-2.80245e-07
0.000527837
0.000527429
0.00052639
0.000524713
0.000522351
0.000519183
0.000515037
0.000509702
0.000502918
0.000494366
0.000483652
0.000470304
0.000453754
0.000433336
0.000408284
0.000377735
0.000340758
0.000296398
0.000243757
0.000182111
0.000111074
3.0809e-05
-5.77429e-05
-0.000152628
-0.000250722
-0.000347712
-0.000438322
-0.000516831
-0.000577869
-0.00061736
-0.00063336
-0.000626487
-0.000599761
-0.000557869
-0.000506145
-0.000449622
-0.000392413
-0.000337493
-0.000286767
-0.000241266
-0.000201373
-0.000167026
-0.000137871
-0.000113401
-9.30427e-05
-7.62252e-05
-6.24152e-05
-5.11319e-05
-4.19495e-05
-3.44958e-05
-2.84521e-05
-2.35527e-05
-1.95834e-05
-1.63737e-05
-1.37869e-05
-1.17087e-05
-1.00399e-05
-8.69286e-06
-7.59254e-06
-6.6787e-06
-5.90696e-06
-5.24714e-06
-4.6799e-06
-4.19201e-06
-3.77262e-06
-3.41071e-06
-3.09455e-06
-2.81226e-06
-2.55315e-06
-2.30867e-06
-2.07306e-06
-1.84318e-06
-1.61808e-06
-1.39812e-06
-1.18443e-06
-9.78223e-07
-7.80659e-07
-5.92849e-07
-4.13253e-07
-2.73799e-07
0.000529096
0.000528728
0.000527791
0.000526277
0.000524138
0.000521257
0.00051747
0.000512573
0.000506313
0.000498373
0.000488364
0.000475809
0.000460129
0.000440637
0.000416529
0.000386885
0.000350693
0.000306889
0.000254437
0.000192454
0.000120383
3.82268e-05
-5.3185e-05
-0.000151918
-0.000254724
-0.000356985
-0.000452928
-0.000536191
-0.000600729
-0.000641918
-0.000657553
-0.000648375
-0.000617871
-0.000571403
-0.000514981
-0.000454163
-0.000393375
-0.000335705
-0.000283037
-0.000236304
-0.00019576
-0.000161205
-0.000132162
-0.000108013
-8.81003e-05
-7.17908e-05
-5.85069e-05
-4.77386e-05
-3.90404e-05
-3.20278e-05
-2.6375e-05
-2.18149e-05
-1.8136e-05
-1.51737e-05
-1.27976e-05
-1.08986e-05
-9.38078e-06
-8.15867e-06
-7.15912e-06
-6.32438e-06
-5.61352e-06
-5.0005e-06
-4.47008e-06
-4.01243e-06
-3.61901e-06
-3.28005e-06
-2.98429e-06
-2.71996e-06
-2.47643e-06
-2.24544e-06
-2.02163e-06
-1.80235e-06
-1.58701e-06
-1.37614e-06
-1.17075e-06
-9.71765e-07
-7.79938e-07
-5.96047e-07
-4.18364e-07
-2.78312e-07
0.000530348
0.00053002
0.000529185
0.000527832
0.000525915
0.000523321
0.000519892
0.000515433
0.000509696
0.000502371
0.00049307
0.000481314
0.000466517
0.000447969
0.00042483
0.000396126
0.000360763
0.000317569
0.000265369
0.000203113
0.000130065
4.60533e-05
-4.82194e-05
-0.000150856
-0.000258495
-0.000366213
-0.000467722
-0.000555979
-0.00062421
-0.00066719
-0.000682426
-0.00067079
-0.000636287
-0.00058501
-0.0005237
-0.000458464
-0.000394038
-0.00033361
-0.000279025
-0.000231102
-0.000189954
-0.000155238
-0.000126346
-0.000102551
-8.31095e-05
-6.73258e-05
-5.45806e-05
-4.43355e-05
-3.61268e-05
-2.95577e-05
-2.4296e-05
-2.00738e-05
-1.66833e-05
-1.39663e-05
-1.17993e-05
-1.00782e-05
-8.71037e-06
-7.61197e-06
-6.71163e-06
-5.9542e-06
-5.30256e-06
-4.73512e-06
-4.24099e-06
-3.81373e-06
-3.44697e-06
-3.13184e-06
-2.85723e-06
-2.61122e-06
-2.38315e-06
-2.16501e-06
-1.952e-06
-1.74215e-06
-1.53543e-06
-1.33271e-06
-1.13505e-06
-9.43167e-07
-7.57505e-07
-5.7861e-07
-4.04927e-07
-2.68602e-07
0.000531564
0.000531275
0.000530539
0.000529343
0.000527641
0.000525325
0.000522245
0.000518212
0.000512985
0.000506261
0.000497654
0.000486685
0.000472759
0.000455148
0.000432979
0.000405225
0.000370715
0.00032817
0.000276277
0.000213821
0.000139879
5.40997e-05
-4.29581e-05
-0.000149449
-0.000261917
-0.00037514
-0.000482312
-0.000575683
-0.000647713
-0.000692537
-0.00070735
-0.000693162
-0.00065453
-0.00059833
-0.000532064
-0.0004624
-0.000394374
-0.000331256
-0.000274831
-0.000225792
-0.000184105
-0.00014928
-0.000120576
-9.71598e-05
-7.82034e-05
-6.29518e-05
-5.07459e-05
-4.10215e-05
-3.32974e-05
-2.71655e-05
-2.22878e-05
-1.83961e-05
-1.52873e-05
-1.28103e-05
-1.08484e-05
-9.30252e-06
-8.08251e-06
-7.10593e-06
-6.30284e-06
-5.62076e-06
-5.02662e-06
-4.50363e-06
-4.04537e-06
-3.64879e-06
-3.30939e-06
-3.0189e-06
-2.76593e-06
-2.53815e-06
-2.3247e-06
-2.11785e-06
-1.91348e-06
-1.71049e-06
-1.50967e-06
-1.31245e-06
-1.1201e-06
-9.33286e-07
-7.52212e-07
-5.77176e-07
-4.06423e-07
-2.71439e-07
0.000532716
0.000532464
0.000531821
0.000530773
0.000529274
0.000527221
0.000524471
0.000520842
0.0005161
0.000509947
0.000502003
0.000491787
0.000478697
0.000461991
0.000440765
0.000413944
0.000380283
0.000338405
0.000286863
0.000224279
0.000149549
6.21353e-05
-3.7554e-05
-0.000147742
-0.000264894
-0.000383511
-0.000496276
-0.000594736
-0.000670565
-0.000717235
-0.000731614
-0.000714853
-0.000672085
-0.000610989
-0.000539843
-0.000465871
-0.000394386
-0.000328719
-0.000270579
-0.000220526
-0.000178376
-0.000143491
-0.000115005
-9.1977e-05
-7.35025e-05
-5.87709e-05
-4.70873e-05
-3.78639e-05
-3.06037e-05
-2.4888e-05
-2.03738e-05
-1.67934e-05
-1.39491e-05
-1.16975e-05
-9.92859e-06
-8.54813e-06
-7.4678e-06
-6.6059e-06
-5.89364e-06
-5.28121e-06
-4.73979e-06
-4.25758e-06
-3.83279e-06
-3.46565e-06
-3.15327e-06
-2.88757e-06
-2.65654e-06
-2.44706e-06
-2.2479e-06
-2.05157e-06
-1.85471e-06
-1.65726e-06
-1.46105e-06
-1.26825e-06
-1.08052e-06
-8.98599e-07
-7.22551e-07
-5.52525e-07
-3.86957e-07
-2.58174e-07
0.000533777
0.000533559
0.000533001
0.000532089
0.000530776
0.000528964
0.000526517
0.000523259
0.000518963
0.000513337
0.000506004
0.000496486
0.000484174
0.000468314
0.000447975
0.000422038
0.000389195
0.000347974
0.000296808
0.000234166
0.000158767
6.98938e-05
-3.21991e-05
-0.000145813
-0.000267356
-0.000391078
-0.000509181
-0.000612531
-0.000692031
-0.000740488
-0.000754441
-0.000735179
-0.000688409
-0.000622612
-0.000546826
-0.000468802
-0.000394107
-0.000326107
-0.000266425
-0.000215484
-0.000172953
-0.000138056
-0.000109805
-8.71635e-05
-6.91535e-05
-5.49158e-05
-4.37243e-05
-3.49707e-05
-2.81437e-05
-2.28151e-05
-1.86374e-05
-1.53442e-05
-1.27436e-05
-1.06999e-05
-9.11025e-06
-7.88413e-06
-6.9345e-06
-6.17974e-06
-5.55177e-06
-5.00332e-06
-4.50986e-06
-4.0647e-06
-3.67064e-06
-3.33108e-06
-3.04451e-06
-2.80267e-06
-2.59258e-06
-2.40008e-06
-2.21341e-06
-2.02526e-06
-1.83309e-06
-1.63803e-06
-1.44309e-06
-1.2514e-06
-1.06522e-06
-8.85469e-07
-7.12185e-07
-5.45377e-07
-3.8334e-07
-2.57826e-07
0.000534722
0.000534534
0.000534052
0.000533259
0.000532111
0.000530512
0.000528333
0.000525403
0.000521502
0.000516344
0.000509555
0.000500658
0.000489043
0.000473942
0.000454403
0.000429272
0.000397183
0.000356582
0.000305794
0.000243149
0.000167208
7.70844e-05
-2.71153e-05
-0.000143775
-0.000269265
-0.000397618
-0.000520603
-0.000628454
-0.000711349
-0.000761466
-0.000775021
-0.000753433
-0.000702957
-0.000632838
-0.000552823
-0.000471149
-0.000393597
-0.000323548
-0.000262533
-0.000210847
-0.000168017
-0.000133144
-0.00010513
-8.28502e-05
-6.52657e-05
-5.1475e-05
-4.07254e-05
-3.23918e-05
-2.59505e-05
-2.09648e-05
-1.70833e-05
-1.40414e-05
-1.16535e-05
-9.79169e-06
-8.35951e-06
-7.26979e-06
-6.43602e-06
-5.77602e-06
-5.22202e-06
-4.72902e-06
-4.27665e-06
-3.86318e-06
-3.49589e-06
-3.18115e-06
-2.91853e-06
-2.69936e-06
-2.50941e-06
-2.3333e-06
-2.15854e-06
-1.97793e-06
-1.78975e-06
-1.59634e-06
-1.40202e-06
-1.21098e-06
-1.02616e-06
-8.48813e-07
-6.79024e-07
-5.16757e-07
-3.60517e-07
-2.42886e-07
0.000535531
0.000535367
0.000534949
0.000534257
0.000533246
0.000531827
0.000529874
0.000527221
0.000523653
0.00051889
0.000512561
0.000504191
0.000493168
0.000478715
0.000459864
0.000435428
0.000403996
0.000363947
0.000313512
0.000250906
0.00017455
8.34096e-05
-2.25408e-05
-0.000141766
-0.000270614
-0.000402939
-0.000530141
-0.000641905
-0.000727768
-0.00077934
-0.000792546
-0.000768919
-0.000715207
-0.000641335
-0.000557682
-0.000472899
-0.000392941
-0.00032119
-0.000259088
-0.000206809
-0.000163763
-0.000128939
-0.000101148
-7.91929e-05
-6.19805e-05
-4.85763e-05
-3.82069e-05
-3.02334e-05
-2.4122e-05
-1.94285e-05
-1.57984e-05
-1.2969e-05
-1.07607e-05
-9.05322e-06
-7.75556e-06
-6.78326e-06
-6.04967e-06
-5.47155e-06
-4.98101e-06
-4.53495e-06
-4.11677e-06
-3.72936e-06
-3.38414e-06
-3.09013e-06
-2.84782e-06
-2.64795e-06
-2.47498e-06
-2.31217e-06
-2.14631e-06
-1.97022e-06
-1.78297e-06
-1.58811e-06
-1.39127e-06
-1.19777e-06
-1.01134e-06
-8.33634e-07
-6.64861e-07
-5.04967e-07
-3.5244e-07
-2.39401e-07
0.000536184
0.00053604
0.000535671
0.000535059
0.000534157
0.000532879
0.000531102
0.000528667
0.000525362
0.000520909
0.000514944
0.00050699
0.000496435
0.000482497
0.000464193
0.000440314
0.000409414
0.000369818
0.000319686
0.000257141
0.000180492
8.85868e-05
-1.87099e-05
-0.000139932
-0.000271419
-0.000406888
-0.000537449
-0.000652346
-0.000740595
-0.000793342
-0.000806268
-0.000780998
-0.000724687
-0.000647819
-0.000561284
-0.00047406
-0.000392233
-0.000319175
-0.00025625
-0.000203536
-0.000160346
-0.000125582
-9.7982e-05
-7.62907e-05
-5.93762e-05
-4.62785e-05
-3.62091e-05
-2.8519e-05
-2.26664e-05
-1.82011e-05
-1.47662e-05
-1.2101e-05
-1.00314e-05
-8.44335e-06
-7.2508e-06
-6.37112e-06
-5.71711e-06
-5.20414e-06
-4.76386e-06
-4.35463e-06
-3.963e-06
-3.59581e-06
-3.26805e-06
-2.991e-06
-2.76582e-06
-2.58261e-06
-2.42451e-06
-2.27353e-06
-2.11566e-06
-1.94373e-06
-1.75745e-06
-1.56149e-06
-1.36269e-06
-1.16744e-06
-9.80242e-07
-8.03175e-07
-6.36619e-07
-4.8053e-07
-3.33514e-07
-2.27953e-07
0.000536668
0.000536538
0.000536204
0.000535647
0.000534821
0.000533641
0.000531989
0.000529706
0.000526585
0.00052235
0.000516639
0.000508978
0.000498752
0.000485176
0.000467258
0.000443776
0.000413256
0.00037399
0.000324087
0.000261606
0.00018478
9.23727e-05
-1.58297e-05
-0.000138413
-0.000271712
-0.000409354
-0.000542249
-0.000659333
-0.000749253
-0.000802824
-0.000815555
-0.000789137
-0.000731013
-0.000652067
-0.000563546
-0.000474657
-0.000391568
-0.000317638
-0.000254176
-0.000201188
-0.000157921
-0.000123217
-9.57627e-05
-7.42647e-05
-5.75638e-05
-4.4684e-05
-3.4827e-05
-2.73374e-05
-2.16677e-05
-1.73632e-05
-1.40654e-05
-1.15153e-05
-9.54291e-06
-8.03926e-06
-6.92184e-06
-6.10912e-06
-5.51307e-06
-5.0476e-06
-4.64373e-06
-4.26071e-06
-3.88749e-06
-3.53395e-06
-3.21782e-06
-2.95214e-06
-2.73853e-06
-2.56653e-06
-2.41818e-06
-2.27437e-06
-2.12045e-06
-1.94921e-06
-1.76093e-06
-1.56119e-06
-1.3579e-06
-1.15841e-06
-9.67911e-07
-7.88938e-07
-6.2205e-07
-4.67256e-07
-3.23244e-07
-2.22096e-07
0.000536972
0.00053685
0.000536535
0.000536008
0.000535224
0.000534099
0.000532514
0.000530315
0.000527293
0.000523177
0.000517604
0.000510101
0.000500054
0.000486675
0.000468969
0.000445703
0.000415395
0.000376315
0.00032655
0.000264123
0.000187229
9.45866e-05
-1.40578e-05
-0.000137318
-0.000271528
-0.000410271
-0.000544353
-0.000662552
-0.000753325
-0.000807318
-0.000819951
-0.000792951
-0.000733912
-0.000653925
-0.00056442
-0.000474715
-0.000391017
-0.000316675
-0.000252966
-0.000199862
-0.000156575
-0.000121917
-9.45496e-05
-7.31589e-05
-5.65735e-05
-4.38098e-05
-3.40655e-05
-2.66821e-05
-2.1109e-05
-1.68893e-05
-1.36633e-05
-1.11732e-05
-9.25185e-06
-7.79335e-06
-6.71719e-06
-5.94229e-06
-5.37971e-06
-4.94207e-06
-4.5597e-06
-4.19222e-06
-3.82995e-06
-3.48469e-06
-3.1759e-06
-2.91768e-06
-2.71191e-06
-2.54766e-06
-2.40613e-06
-2.26741e-06
-2.11633e-06
-1.94566e-06
-1.75603e-06
-1.55373e-06
-1.34745e-06
-1.14528e-06
-9.53003e-07
-7.73506e-07
-6.07517e-07
-4.55053e-07
-3.14699e-07
-2.18021e-07
0.000537091
0.00053697
0.000536658
0.000536136
0.000535358
0.000534241
0.000532666
0.000530478
0.00052747
0.00052337
0.000517814
0.000510332
0.000500308
0.000486953
0.000469275
0.000446039
0.000415763
0.000376717
0.000326987
0.000264596
0.000187737
9.51304e-05
-1.34808e-05
-0.00013671
-0.000270892
-0.000409608
-0.000543667
-0.000661845
-0.000752602
-0.000806586
-0.000819224
-0.000792246
-0.00073325
-0.000653323
-0.000563889
-0.000474257
-0.000390627
-0.000316345
-0.000252687
-0.000199626
-0.000156376
-0.000121748
-9.44044e-05
-7.3033e-05
-5.64632e-05
-4.37128e-05
-3.39805e-05
-2.66083e-05
-2.10455e-05
-1.68346e-05
-1.36158e-05
-1.11317e-05
-9.21618e-06
-7.76405e-06
-6.69528e-06
-5.92851e-06
-5.37403e-06
-4.94355e-06
-4.56671e-06
-4.203e-06
-3.84304e-06
-3.49923e-06
-3.19161e-06
-2.93466e-06
-2.73026e-06
-2.56719e-06
-2.42622e-06
-2.28702e-06
-2.13416e-06
-1.96038e-06
-1.76657e-06
-1.55944e-06
-1.34816e-06
-1.14135e-06
-9.45207e-07
-7.6291e-07
-5.95347e-07
-4.42604e-07
-3.03431e-07
-2.09542e-07
0.000537025
0.000536899
0.000536574
0.00053603
0.000535223
0.000534067
0.000532444
0.000530196
0.000527115
0.000522927
0.000517269
0.000509669
0.00049951
0.000486009
0.000468173
0.00044478
0.000414356
0.000375191
0.000325393
0.000263019
0.0001863
9.39974e-05
-1.41059e-05
-0.000136597
-0.000269811
-0.000407376
-0.000540201
-0.000657223
-0.000747095
-0.000800642
-0.000813388
-0.000787038
-0.000729041
-0.000650271
-0.000561959
-0.000473285
-0.000390398
-0.000316645
-0.000253333
-0.000200472
-0.00015731
-0.000122693
-9.53076e-05
-7.38645e-05
-5.72075e-05
-4.43644e-05
-3.45407e-05
-2.7082e-05
-2.14405e-05
-1.71604e-05
-1.38824e-05
-1.1349e-05
-9.3928e-06
-7.90742e-06
-6.81156e-06
-6.02295e-06
-5.4513e-06
-5.00785e-06
-4.62166e-06
-4.2515e-06
-3.88715e-06
-3.5402e-06
-3.23007e-06
-2.97078e-06
-2.76397e-06
-2.59832e-06
-2.45458e-06
-2.31239e-06
-2.15634e-06
-1.9792e-06
-1.78191e-06
-1.57132e-06
-1.35681e-06
-1.14719e-06
-9.48906e-07
-7.65311e-07
-5.9738e-07
-4.45142e-07
-3.06983e-07
-2.13407e-07
0.000536777
0.000536639
0.000536285
0.000535695
0.000534824
0.000533585
0.000531856
0.000529479
0.000526241
0.000521866
0.000515989
0.000508135
0.000497692
0.000483877
0.000465708
0.000441977
0.000411234
0.000371805
0.000321847
0.000259478
0.000183005
9.12723e-05
-1.58608e-05
-0.000136931
-0.000268278
-0.000403621
-0.000534068
-0.000648867
-0.000737041
-0.000789753
-0.000802708
-0.000777552
-0.000721447
-0.000644867
-0.00055867
-0.000471797
-0.000390299
-0.000317532
-0.000254856
-0.000202352
-0.000159337
-0.000124718
-9.72353e-05
-7.56376e-05
-5.87983e-05
-4.57641e-05
-3.57517e-05
-2.81147e-05
-2.23105e-05
-1.78871e-05
-1.44868e-05
-1.1851e-05
-9.80957e-06
-8.25247e-06
-7.09569e-06
-6.25552e-06
-5.64128e-06
-5.16415e-06
-4.75273e-06
-4.36448e-06
-3.98724e-06
-3.63046e-06
-3.3117e-06
-3.0438e-06
-2.82793e-06
-2.65288e-06
-2.49978e-06
-2.34871e-06
-2.18457e-06
-2.00023e-06
-1.79658e-06
-1.58035e-06
-1.36083e-06
-1.14683e-06
-9.44821e-07
-7.58244e-07
-5.88134e-07
-4.34537e-07
-2.96e-07
-2.03466e-07
0.000536356
0.0005362
0.000535802
0.000535142
0.000534174
0.000532809
0.000530922
0.000528349
0.000524875
0.000520219
0.000514013
0.000505781
0.000494912
0.00048063
0.000461966
0.000437733
0.000406519
0.000366699
0.000316503
0.00025414
0.000178027
8.71229e-05
-1.86025e-05
-0.000137618
-0.000266275
-0.000398428
-0.000525477
-0.00063711
-0.000722877
-0.00077441
-0.000787663
-0.000764195
-0.000710764
-0.000637281
-0.000554084
-0.000469773
-0.000390261
-0.000318906
-0.000257144
-0.000205152
-0.000162347
-0.000127723
-0.000100094
-7.82677e-05
-6.11596e-05
-4.78429e-05
-3.75515e-05
-2.96502e-05
-2.36046e-05
-1.89684e-05
-1.53862e-05
-1.25979e-05
-1.04289e-05
-8.76394e-06
-7.51499e-06
-6.5963e-06
-5.91695e-06
-5.38833e-06
-4.93856e-06
-4.52324e-06
-4.12724e-06
-3.75661e-06
-3.42595e-06
-3.1462e-06
-2.91783e-06
-2.72987e-06
-2.5642e-06
-2.40172e-06
-2.22787e-06
-2.03569e-06
-1.82592e-06
-1.60498e-06
-1.3818e-06
-1.16494e-06
-9.60759e-07
-7.72681e-07
-6.01704e-07
-4.47712e-07
-3.08633e-07
-2.13537e-07
0.000535774
0.000535596
0.00053514
0.000534388
0.000533293
0.000531763
0.000529669
0.00052684
0.000523058
0.000518035
0.000511402
0.00050268
0.00049126
0.000476375
0.000457073
0.000432198
0.000400382
0.00036007
0.000309582
0.000247243
0.000171607
8.17808e-05
-2.21361e-05
-0.000138533
-0.000263784
-0.000391923
-0.00051472
-0.000622416
-0.000705203
-0.000755283
-0.000768907
-0.000747523
-0.000697397
-0.000627755
-0.000548298
-0.000467203
-0.000390201
-0.000320646
-0.000260058
-0.000208733
-0.000166209
-0.000131589
-0.000103782
-8.16708e-05
-6.42224e-05
-5.0546e-05
-3.98977e-05
-3.16572e-05
-2.5301e-05
-2.039e-05
-1.65721e-05
-1.35852e-05
-1.12493e-05
-9.4426e-06
-8.07192e-06
-7.04905e-06
-6.28277e-06
-5.68484e-06
-5.18277e-06
-4.72985e-06
-4.30711e-06
-3.91618e-06
-3.56787e-06
-3.2706e-06
-3.0239e-06
-2.81716e-06
-2.63329e-06
-2.45428e-06
-2.26633e-06
-2.06272e-06
-1.84398e-06
-1.61605e-06
-1.38735e-06
-1.16605e-06
-9.58277e-07
-7.67377e-07
-5.94304e-07
-4.3887e-07
-2.99043e-07
-2.04187e-07
0.000535048
0.000534843
0.000534317
0.000533453
0.000532205
0.000530476
0.000528131
0.000524995
0.000520841
0.000515379
0.000508233
0.000498924
0.000486847
0.000471245
0.000451188
0.000425557
0.00039304
0.000352163
0.000301354
0.000239075
0.000164039
7.55187e-05
-2.62383e-05
-0.00013954
-0.000260801
-0.000384273
-0.000502161
-0.000605338
-0.000684724
-0.000733154
-0.000747203
-0.000728189
-0.000681829
-0.000616584
-0.00054144
-0.000464085
-0.000390031
-0.000322609
-0.00026343
-0.000212919
-0.000170751
-0.000136157
-0.000108157
-8.57185e-05
-6.78741e-05
-5.37754e-05
-4.2706e-05
-3.40638e-05
-2.73385e-05
-2.21e-05
-1.79999e-05
-1.47745e-05
-1.22376e-05
-1.02602e-05
-8.74315e-06
-7.5952e-06
-6.72471e-06
-6.04366e-06
-5.47881e-06
-4.98071e-06
-4.52591e-06
-4.11095e-06
-3.74209e-06
-3.4248e-06
-3.15743e-06
-2.9297e-06
-2.72564e-06
-2.52851e-06
-2.32536e-06
-2.10973e-06
-1.88192e-06
-1.64726e-06
-1.41356e-06
-1.18853e-06
-9.7801e-07
-7.85206e-07
-6.10983e-07
-4.54907e-07
-3.14192e-07
-2.16072e-07
0.000534199
0.000533962
0.000533356
0.000532364
0.000530941
0.000528984
0.000526352
0.000522864
0.000518287
0.000512324
0.000504596
0.000494623
0.000481803
0.000465395
0.000444495
0.000418024
0.000384738
0.000343254
0.00029212
0.000229952
0.000155636
6.8626e-05
-3.06799e-05
-0.000140512
-0.000257344
-0.00037568
-0.000488208
-0.000586485
-0.000662202
-0.000708861
-0.000723364
-0.000706893
-0.000664588
-0.000604106
-0.000533671
-0.000460441
-0.000389672
-0.000324656
-0.000267089
-0.000217528
-0.000175796
-0.000141263
-0.000113069
-9.02809e-05
-7.20033e-05
-5.7437e-05
-4.58981e-05
-3.6806e-05
-2.96656e-05
-2.4057e-05
-1.96364e-05
-1.61386e-05
-1.33714e-05
-1.1198e-05
-9.51285e-06
-8.22132e-06
-7.23087e-06
-6.45351e-06
-5.81501e-06
-5.26292e-06
-4.76901e-06
-4.32426e-06
-3.93001e-06
-3.58841e-06
-3.29643e-06
-3.04398e-06
-2.81623e-06
-2.59769e-06
-2.37632e-06
-2.14594e-06
-1.90655e-06
-1.66292e-06
-1.42222e-06
-1.19166e-06
-9.76791e-07
-7.80711e-07
-6.04207e-07
-4.46709e-07
-3.05347e-07
-2.07496e-07
0.00053325
0.000532978
0.000532283
0.000531151
0.000529534
0.000527327
0.00052438
0.000520507
0.000515466
0.000508956
0.000500593
0.000489897
0.000476275
0.000458998
0.000437194
0.000409832
0.00037574
0.000333634
0.000282195
0.000220201
0.000146719
6.13874e-05
-3.52452e-05
-0.000141344
-0.000253459
-0.000366376
-0.000473296
-0.00056648
-0.000638406
-0.000683239
-0.000698207
-0.000684346
-0.000646222
-0.000590684
-0.000525182
-0.000456318
-0.000389068
-0.000326663
-0.000270868
-0.000222377
-0.000181158
-0.000146727
-0.000118355
-9.52113e-05
-7.64806e-05
-6.14187e-05
-4.93781e-05
-3.98027e-05
-3.22144e-05
-2.62046e-05
-2.14348e-05
-1.7639e-05
-1.46192e-05
-1.2231e-05
-1.03621e-05
-8.91394e-06
-7.79274e-06
-6.91011e-06
-6.19062e-06
-5.57871e-06
-5.04122e-06
-4.56347e-06
-4.14167e-06
-3.77439e-06
-3.45697e-06
-3.1793e-06
-2.92751e-06
-2.68729e-06
-2.44744e-06
-2.20205e-06
-1.95088e-06
-1.69812e-06
-1.45035e-06
-1.21431e-06
-9.95315e-07
-7.96336e-07
-6.18057e-07
-4.59629e-07
-3.17412e-07
-2.16958e-07
0.000532226
0.000531916
0.000531127
0.000529845
0.000528023
0.000525549
0.000522268
0.000517985
0.000512454
0.000505365
0.000496333
0.000484879
0.000470415
0.000452235
0.000429495
0.000401221
0.000366314
0.000323599
0.000271893
0.000210139
0.000137591
5.40653e-05
-3.97468e-05
-0.000141959
-0.000249219
-0.000356612
-0.000457859
-0.00054593
-0.00061407
-0.000657082
-0.000672504
-0.000661231
-0.000627271
-0.000576693
-0.000516186
-0.000451793
-0.000388189
-0.000328525
-0.000274621
-0.000227293
-0.000186658
-0.000152378
-0.000123853
-0.000100363
-8.11766e-05
-6.56078e-05
-5.30494e-05
-4.29721e-05
-3.49161e-05
-2.84851e-05
-2.33468e-05
-1.92348e-05
-1.59463e-05
-1.33294e-05
-1.12651e-05
-9.65052e-06
-8.39002e-06
-7.39448e-06
-6.58709e-06
-5.90921e-06
-5.32289e-06
-4.80787e-06
-4.3552e-06
-3.95977e-06
-3.61501e-06
-3.31056e-06