/*--------------------------------*- C++ -*----------------------------------*\
| =========                 |                                                 |
| \\      /  F ield         | OpenFOAM: The Open Source CFD Toolbox           |
|  \\    /   O peration     | Version:  2512                                  |
|   \\  /    A nd           | Website:  www.openfoam.com                      |
|    \\/     M anipulation  |                                                 |
\*---------------------------------------------------------------------------*/
FoamFile
{
    version     2.0;
    format      ascii;
    arch        "LSB;label=32;scalar=64";
    class       volScalarField;
    location    "100";
    object      p;
}
// * * * * * * * * * * * * * * * * * * * * * * * * * * * * * * * * * * * * * //

dimensions      [0 2 -2 0 0 0 0];

internalField   nonuniform List<scalar> 
240106
(
0.00012247
0.000122256
0.000121712
0.000120839
0.000119622
0.000118015
0.000115948
0.000113342
0.000110098
0.000106104
0.000101225
9.531e-05
8.81914e-05
7.96902e-05
6.96217e-05
5.78057e-05
4.40801e-05
2.83209e-05
1.04657e-05
-9.45653e-06
-3.12967e-05
-5.47562e-05
-7.93646e-05
-0.00010447
-0.000129247
-0.000152735
-0.000173902
-0.000191738
-0.00020536
-0.000214129
-0.000217729
-0.000216221
-0.000210022
-0.000199848
-0.000186601
-0.000171252
-0.000154738
-0.00013788
-0.000121342
-0.00010562
-9.10479e-05
-7.78223e-05
-6.60268e-05
-5.56605e-05
-4.66631e-05
-3.89367e-05
-3.23625e-05
-2.68133e-05
-2.21621e-05
-1.82873e-05
-1.50768e-05
-1.24294e-05
-1.02559e-05
-8.47886e-06
-7.03215e-06
-5.8594e-06
-4.91277e-06
-4.15159e-06
-3.54122e-06
-3.05225e-06
-2.65986e-06
-2.34331e-06
-2.08541e-06
-1.87197e-06
-1.69125e-06
-1.53353e-06
-1.39081e-06
-1.25663e-06
-1.1261e-06
-9.96007e-07
-8.64789e-07
-7.32636e-07
-6.01273e-07
-4.73774e-07
-3.54107e-07
-2.46742e-07
-1.56084e-07
-8.60407e-08
-3.95999e-08
-2.15046e-08
0.00012253
0.000122318
0.000121779
0.000120914
0.000119709
0.000118116
0.000116067
0.000113482
0.000110265
0.0001063
0.000101454
9.55758e-05
8.84963e-05
8.0035e-05
7.00051e-05
5.82229e-05
4.45223e-05
2.87738e-05
1.09093e-05
-9.04939e-06
-3.0959e-05
-5.45257e-05
-7.92809e-05
-0.00010457
-0.000129559
-0.000153273
-0.000174659
-0.000192684
-0.000206442
-0.000215274
-0.000218858
-0.000217257
-0.000210903
-0.000200533
-0.000187075
-0.000171523
-0.000154829
-0.000137824
-0.000121176
-0.000105377
-9.07596e-05
-7.75132e-05
-6.5716e-05
-5.53614e-05
-4.63847e-05
-3.86841e-05
-3.21381e-05
-2.66172e-05
-2.19932e-05
-1.81436e-05
-1.49557e-05
-1.23283e-05
-1.01721e-05
-8.40993e-06
-6.9758e-06
-5.81365e-06
-4.87588e-06
-4.12201e-06
-3.51753e-06
-3.03317e-06
-2.64421e-06
-2.33007e-06
-2.0737e-06
-1.86113e-06
-1.68081e-06
-1.52323e-06
-1.38057e-06
-1.24652e-06
-1.11633e-06
-9.86866e-07
-8.56625e-07
-7.25789e-07
-5.96043e-07
-4.70361e-07
-3.52578e-07
-2.46988e-07
-1.57781e-07
-8.86108e-08
-4.21668e-08
-2.26267e-08
0.000122649
0.000122441
0.000121912
0.000121063
0.00011988
0.000118316
0.000116302
0.00011376
0.000110593
0.000106686
0.000101907
9.61011e-05
8.90992e-05
8.07175e-05
7.07644e-05
5.905e-05
4.53997e-05
2.96737e-05
1.17914e-05
-8.23812e-06
-3.02843e-05
-5.40629e-05
-7.91089e-05
-0.000104762
-0.000130174
-0.000154338
-0.000176162
-0.000194565
-0.000208594
-0.000217555
-0.000221107
-0.000219319
-0.000212654
-0.000201894
-0.000188015
-0.000172057
-0.000155006
-0.00013771
-0.000120842
-0.000104894
-9.01861e-05
-7.6899e-05
-6.50987e-05
-5.47679e-05
-4.58325e-05
-3.81832e-05
-3.16929e-05
-2.62282e-05
-2.1658e-05
-1.78582e-05
-1.47153e-05
-1.21275e-05
-1.00056e-05
-8.27288e-06
-6.86375e-06
-5.7227e-06
-4.80262e-06
-4.06339e-06
-3.47077e-06
-2.9957e-06
-2.61372e-06
-2.3045e-06
-2.05135e-06
-1.84065e-06
-1.66129e-06
-1.50411e-06
-1.36165e-06
-1.22791e-06
-1.09839e-06
-9.70107e-07
-8.41662e-07
-7.13246e-07
-5.86459e-07
-4.64109e-07
-3.49778e-07
-2.47438e-07
-1.60889e-07
-9.33301e-08
-4.69244e-08
-2.51448e-08
0.000122823
0.000122621
0.000122108
0.000121283
0.000120132
0.000118609
0.000116648
0.000114169
0.000111076
0.000107256
0.000102574
9.68758e-05
8.9989e-05
8.17255e-05
7.1887e-05
6.02743e-05
4.67004e-05
3.10098e-05
1.31039e-05
-7.02804e-06
-2.92742e-05
-5.33648e-05
-7.88413e-05
-0.000105037
-0.000131077
-0.000155915
-0.000178395
-0.000197365
-0.000211802
-0.000220955
-0.000224459
-0.00022239
-0.000215257
-0.00020391
-0.000189401
-0.000172838
-0.000155255
-0.000137527
-0.000120336
-0.000104168
-8.93297e-05
-7.59849e-05
-6.41821e-05
-5.38881e-05
-4.50148e-05
-3.74423e-05
-3.10349e-05
-2.56535e-05
-2.1163e-05
-1.7437e-05
-1.43605e-05
-1.18312e-05
-9.76008e-06
-8.07078e-06
-6.69856e-06
-5.58872e-06
-4.6948e-06
-3.97722e-06
-3.40214e-06
-2.94083e-06
-2.56915e-06
-2.2672e-06
-2.01881e-06
-1.81092e-06
-1.63298e-06
-1.47642e-06
-1.33427e-06
-1.20097e-06
-1.07233e-06
-9.45647e-07
-8.19636e-07
-6.94505e-07
-5.71747e-07
-4.53934e-07
-3.44305e-07
-2.46383e-07
-1.63442e-07
-9.80787e-08
-5.18167e-08
-2.74035e-08
0.000123049
0.000122854
0.00012236
0.000121566
0.000120458
0.00011899
0.000117096
0.000114699
0.000111703
0.000107995
0.000103441
9.78833e-05
9.11475e-05
8.30394e-05
7.33524e-05
6.18751e-05
4.84042e-05
3.27639e-05
1.48316e-05
-5.42949e-06
-2.79329e-05
-5.24289e-05
-7.84682e-05
-0.000105376
-0.000132247
-0.000157976
-0.000181329
-0.000201055
-0.000216037
-0.000225448
-0.000228884
-0.000226439
-0.000218679
-0.000206549
-0.000191203
-0.000173841
-0.000155558
-0.000137266
-0.000119655
-0.000103202
-8.81977e-05
-7.47816e-05
-6.29793e-05
-5.27361e-05
-4.39463e-05
-3.64754e-05
-3.01772e-05
-2.49051e-05
-2.05189e-05
-1.68893e-05
-1.38994e-05
-1.14463e-05
-9.44119e-06
-7.8084e-06
-6.48422e-06
-5.41497e-06
-4.55512e-06
-3.86577e-06
-3.31358e-06
-2.87022e-06
-2.51202e-06
-2.21966e-06
-1.97761e-06
-1.77357e-06
-1.59773e-06
-1.44223e-06
-1.30072e-06
-1.16818e-06
-1.04085e-06
-9.16279e-07
-7.93372e-07
-6.72349e-07
-5.54565e-07
-4.42309e-07
-3.38397e-07
-2.45817e-07
-1.67213e-07
-1.04488e-07
-5.84222e-08
-3.09078e-08
0.00012332
0.000123135
0.000122665
0.000121908
0.000120851
0.000119448
0.000117636
0.000115338
0.00011246
0.000108888
0.000104488
9.91025e-05
9.25511e-05
8.46337e-05
7.51336e-05
6.38247e-05
5.04841e-05
3.49112e-05
1.69538e-05
-3.45731e-06
-2.62674e-05
-5.1253e-05
-7.79775e-05
-0.000105758
-0.000133652
-0.000160486
-0.000184924
-0.000205594
-0.000221257
-0.00023099
-0.000234342
-0.000231423
-0.000222878
-0.00020977
-0.000193384
-0.000175033
-0.000155892
-0.000136912
-0.000118793
-0.000102
-8.68004e-05
-7.33038e-05
-6.15075e-05
-5.13307e-05
-4.26456e-05
-3.53005e-05
-2.91365e-05
-2.39981e-05
-1.97392e-05
-1.62267e-05
-1.33419e-05
-1.09812e-05
-9.05596e-06
-7.49143e-06
-6.2252e-06
-5.20492e-06
-4.38617e-06
-3.73086e-06
-3.20625e-06
-2.78453e-06
-2.4426e-06
-2.16181e-06
-1.92748e-06
-1.7282e-06
-1.55506e-06
-1.40103e-06
-1.2605e-06
-1.12903e-06
-1.00333e-06
-8.81294e-07
-7.61987e-07
-6.45649e-07
-5.33476e-07
-4.27434e-07
-3.29865e-07
-2.4316e-07
-1.69286e-07
-1.09419e-07
-6.36372e-08
-3.31401e-08
0.00012363
0.000123455
0.000123012
0.000122298
0.0001213
0.000119973
0.000118255
0.000116071
0.000113328
0.000109914
0.000105694
0.000100507
9.41703e-05
8.64761e-05
7.71961e-05
6.60874e-05
5.29047e-05
3.74183e-05
1.94415e-05
-1.13354e-06
-2.42905e-05
-4.98382e-05
-7.73575e-05
-0.000106158
-0.000135258
-0.000163399
-0.000189128
-0.000210926
-0.000227406
-0.000237524
-0.000240774
-0.000237282
-0.000227794
-0.000213516
-0.000195895
-0.000176377
-0.00015623
-0.000136452
-0.000117749
-0.000100571
-8.51524e-05
-7.15714e-05
-5.97898e-05
-4.96961e-05
-4.1137e-05
-3.39409e-05
-2.79344e-05
-2.29518e-05
-1.88408e-05
-1.54642e-05
-1.2701e-05
-1.04469e-05
-8.61358e-06
-7.12754e-06
-5.92791e-06
-4.96392e-06
-4.19245e-06
-3.57635e-06
-3.08355e-06
-2.68683e-06
-2.36373e-06
-2.09645e-06
-1.87125e-06
-1.67776e-06
-1.50811e-06
-1.3562e-06
-1.21719e-06
-1.08731e-06
-9.63763e-07
-8.44785e-07
-7.29629e-07
-6.18541e-07
-5.12539e-07
-4.13234e-07
-3.22458e-07
-2.41976e-07
-1.73055e-07
-1.16147e-07
-7.06187e-08
-3.69043e-08
0.000123971
0.000123808
0.000123395
0.000122729
0.000121795
0.000120552
0.000118938
0.000116881
0.000114289
0.00011105
0.000107029
0.000102065
9.59701e-05
8.85279e-05
7.94982e-05
6.86197e-05
5.5622e-05
4.02431e-05
2.2257e-05
1.51172e-06
-2.20216e-05
-4.81903e-05
-7.65982e-05
-0.00010655
-0.00013702
-0.000166659
-0.000193874
-0.000216978
-0.000234405
-0.000244972
-0.000248099
-0.000243939
-0.000233352
-0.00021772
-0.000198678
-0.000177829
-0.000156546
-0.000135874
-0.000116525
-9.8925e-05
-8.3275e-05
-6.96107e-05
-5.78553e-05
-4.78624e-05
-3.94498e-05
-3.24241e-05
-2.65959e-05
-2.17889e-05
-1.78437e-05
-1.46188e-05
-1.1991e-05
-9.85525e-06
-8.12378e-06
-6.72448e-06
-5.59837e-06
-4.69651e-06
-3.97726e-06
-3.40449e-06
-2.94687e-06
-2.57778e-06
-2.27553e-06
-2.02321e-06
-1.80819e-06
-1.62127e-06
-1.45568e-06
-1.30633e-06
-1.16923e-06
-1.04129e-06
-9.2021e-07
-8.04599e-07
-6.93885e-07
-5.88315e-07
-4.88715e-07
-3.96318e-07
-3.12425e-07
-2.38162e-07
-1.74112e-07
-1.20055e-07
-7.4797e-08
-3.83459e-08
0.000124334
0.000124185
0.000123803
0.000123188
0.000122324
0.00012117
0.000119668
0.000117747
0.000115317
0.000112268
0.000108464
0.000103742
9.79102e-05
9.07445e-05
8.19911e-05
7.13698e-05
5.85831e-05
4.33337e-05
2.53525e-05
4.43814e-06
-1.94892e-05
-4.63223e-05
-7.56938e-05
-0.000106907
-0.000138891
-0.000170197
-0.00019908
-0.000223655
-0.000242155
-0.000253229
-0.000256215
-0.000251294
-0.000239459
-0.0002223
-0.000201667
-0.000179342
-0.000156812
-0.000135169
-0.000115127
-9.70833e-05
-8.1196e-05
-6.74552e-05
-5.574e-05
-4.58656e-05
-3.76188e-05
-3.07825e-05
-2.51506e-05
-2.05357e-05
-1.67709e-05
-1.37106e-05
-1.12293e-05
-9.22123e-06
-7.59927e-06
-6.29309e-06
-5.24587e-06
-4.41073e-06
-3.74765e-06
-3.22159e-06
-2.80192e-06
-2.46271e-06
-2.18303e-06
-1.94702e-06
-1.74324e-06
-1.56372e-06
-1.4029e-06
-1.25674e-06
-1.12212e-06
-9.96612e-07
-8.78466e-07
-7.66631e-07
-6.60718e-07
-5.6097e-07
-4.68006e-07
-3.8267e-07
-3.05721e-07
-2.3765e-07
-1.78374e-07
-1.27047e-07
-8.1913e-08
-4.24157e-08
0.000124711
0.000124574
0.000124227
0.000123664
0.000122872
0.000121812
0.000120428
0.00011865
0.00011639
0.00011354
0.000109964
0.000105498
9.99458e-05
9.30753e-05
8.46196e-05
7.42782e-05
6.17257e-05
4.66277e-05
2.86687e-05
7.59393e-06
-1.67331e-05
-4.42569e-05
-7.46452e-05
-0.000107205
-0.00014082
-0.000173938
-0.000204645
-0.00023084
-0.000250526
-0.000262163
-0.000264991
-0.000259221
-0.000246003
-0.000227161
-0.000204789
-0.000180868
-0.000157004
-0.000134336
-0.000113572
-9.50737e-05
-7.89522e-05
-6.51461e-05
-5.34866e-05
-4.37479e-05
-3.56839e-05
-2.90528e-05
-2.36314e-05
-1.92208e-05
-1.56473e-05
-1.27608e-05
-1.04335e-05
-8.55914e-06
-7.05154e-06
-5.84237e-06
-4.87727e-06
-4.11163e-06
-3.5071e-06
-3.02974e-06
-2.64963e-06
-2.3415e-06
-2.08527e-06
-1.86616e-06
-1.67403e-06
-1.50224e-06
-1.34646e-06
-1.20371e-06
-1.07173e-06
-9.48783e-07
-8.33612e-07
-7.25525e-07
-6.24322e-07
-5.30243e-07
-4.43707e-07
-3.6517e-07
-2.94856e-07
-2.32637e-07
-1.77806e-07
-1.28974e-07
-8.40453e-08
-4.24294e-08
0.000125091
0.000124968
0.000124654
0.000124145
0.000123428
0.000122463
0.000121198
0.000119566
0.00011748
0.000114834
0.000111493
0.000107291
0.000102028
9.54651e-05
8.73218e-05
7.72776e-05
6.49786e-05
5.00523e-05
3.21348e-05
1.09146e-05
-1.38058e-05
-4.20284e-05
-7.34624e-05
-0.000107424
-0.000142754
-0.000177795
-0.000210452
-0.000238391
-0.000259361
-0.000271608
-0.000274262
-0.000267568
-0.00025285
-0.000232195
-0.000207968
-0.00018236
-0.000157103
-0.000133379
-0.000111883
-9.2934e-05
-7.65894e-05
-6.27329e-05
-5.11453e-05
-4.15578e-05
-3.36904e-05
-2.72762e-05
-2.20749e-05
-1.78768e-05
-1.45011e-05
-1.17937e-05
-9.62465e-06
-7.88711e-06
-6.49619e-06
-5.38584e-06
-4.50442e-06
-3.80971e-06
-3.26509e-06
-2.83765e-06
-2.49811e-06
-2.22185e-06
-1.98966e-06
-1.78794e-06
-1.60792e-06
-1.44433e-06
-1.29411e-06
-1.15528e-06
-1.02641e-06
-9.06406e-07
-7.94488e-07
-6.90313e-07
-5.93871e-07
-5.05419e-07
-4.25193e-07
-3.53284e-07
-2.89403e-07
-2.32834e-07
-1.82287e-07
-1.35869e-07
-9.10788e-08
-4.69069e-08
0.000125465
0.000125355
0.000125075
0.00012462
0.000123975
0.000123105
0.000121959
0.000120472
0.00011856
0.000116117
0.000113011
0.000109075
0.000104105
9.78547e-05
9.0031e-05
8.02945e-05
6.82627e-05
5.35249e-05
3.56683e-05
1.43227e-05
-1.07735e-05
-3.96845e-05
-7.21666e-05
-0.000107551
-0.000144643
-0.000181675
-0.000216369
-0.000246141
-0.000268469
-0.000281363
-0.00028383
-0.000276152
-0.000259846
-0.000237283
-0.00021112
-0.000183775
-0.000157101
-0.000132317
-0.000110097
-9.07125e-05
-7.41625e-05
-6.02729e-05
-4.87724e-05
-3.93484e-05
-3.16866e-05
-2.54957e-05
-2.05189e-05
-1.6536e-05
-1.33598e-05
-1.08322e-05
-8.82116e-06
-7.21978e-06
-5.94451e-06
-4.93191e-06
-4.13324e-06
-3.50879e-06
-3.02357e-06
-2.6456e-06
-2.34616e-06
-2.1012e-06
-1.89246e-06
-1.70757e-06
-1.53919e-06
-1.3835e-06
-1.23863e-06
-1.10361e-06
-9.77751e-07
-8.60508e-07
-7.51553e-07
-6.50866e-07
-5.58637e-07
-4.75166e-07
-4.00544e-07
-3.34537e-07
-2.7639e-07
-2.24842e-07
-1.78086e-07
-1.33822e-07
-8.94357e-08
-4.43333e-08
0.000125823
0.000125726
0.000125478
0.000125075
0.000124501
0.000123723
0.000122691
0.000121345
0.000119601
0.000117358
0.000114481
0.000110806
0.000106123
0.000100182
9.2677e-05
8.32502e-05
7.1492e-05
5.69544e-05
3.91762e-05
1.77284e-05
-7.71628e-06
-3.7287e-05
-7.07923e-05
-0.000107584
-0.000146436
-0.000185478
-0.000222245
-0.000253898
-0.000277625
-0.000291189
-0.000293462
-0.000284766
-0.000266818
-0.000242296
-0.000214167
-0.000185076
-0.000156997
-0.000131176
-0.000108261
-8.84683e-05
-7.1736e-05
-5.78315e-05
-4.64309e-05
-3.71782e-05
-2.97258e-05
-2.37589e-05
-1.90051e-05
-1.52347e-05
-1.22547e-05
-9.9033e-06
-8.04661e-06
-6.57758e-06
-5.41438e-06
-4.49641e-06
-3.778e-06
-3.22195e-06
-2.7948e-06
-2.4653e-06
-2.20509e-06
-1.99069e-06
-1.80473e-06
-1.63619e-06
-1.47921e-06
-1.33141e-06
-1.19213e-06
-1.0613e-06
-9.38858e-07
-8.24749e-07
-7.19005e-07
-6.21899e-07
-5.33817e-07
-4.55128e-07
-3.85821e-07
-3.25393e-07
-2.72675e-07
-2.25926e-07
-1.82866e-07
-1.40813e-07
-9.68362e-08
-4.98485e-08
0.000126156
0.000126071
0.000125853
0.000125498
0.000124991
0.000124299
0.000123376
0.000122162
0.000120578
0.000118522
0.000115864
0.000112436
0.000108029
0.000102384
9.51875e-05
8.6063e-05
7.45762e-05
6.02433e-05
4.25571e-05
2.10312e-05
-4.72671e-06
-3.49116e-05
-6.93869e-05
-0.000107531
-0.000148092
-0.000189104
-0.000227921
-0.000261447
-0.000286577
-0.000300815
-0.000302894
-0.000293171
-0.000273576
-0.000247102
-0.000217031
-0.000186235
-0.000156803
-0.000129999
-0.000106434
-8.62696e-05
-6.93815e-05
-5.54788e-05
-4.41865e-05
-3.51068e-05
-2.78607e-05
-2.21113e-05
-1.75722e-05
-1.40054e-05
-1.12126e-05
-9.02858e-06
-7.31776e-06
-5.97317e-06
-4.91485e-06
-4.08526e-06
-3.44191e-06
-2.95003e-06
-2.57749e-06
-2.29353e-06
-2.06998e-06
-1.88377e-06
-1.71848e-06
-1.56443e-06
-1.41733e-06
-1.27624e-06
-1.14167e-06
-1.01436e-06
-8.94802e-07
-7.83299e-07
-6.80166e-07
-5.85918e-07
-5.01127e-07
-4.26248e-07
-3.61217e-07
-3.05321e-07
-2.57046e-07
-2.14242e-07
-1.74238e-07
-1.34087e-07
-9.09352e-08
-4.44654e-08
0.000126454
0.00012638
0.000126191
0.000125879
0.000125432
0.000124819
0.000123995
0.000122902
0.000121463
0.00011958
0.000117121
0.000113921
0.000109769
0.0001044
9.74908e-05
8.86511e-05
7.74232e-05
6.32912e-05
4.57044e-05
2.41231e-05
-1.90703e-06
-3.26454e-05
-6.80108e-05
-0.000107411
-0.000149577
-0.000192456
-0.000233231
-0.000268559
-0.000295047
-0.000309941
-0.000311833
-0.000301111
-0.000279919
-0.000251565
-0.000219641
-0.000187237
-0.000156544
-0.000128837
-0.000104685
-8.41931e-05
-6.71768e-05
-5.32898e-05
-4.21089e-05
-3.31974e-05
-2.61473e-05
-2.06019e-05
-1.6263e-05
-1.28851e-05
-1.02655e-05
-8.23583e-06
-6.65898e-06
-5.42814e-06
-4.46539e-06
-3.71633e-06
-3.14166e-06
-2.7089e-06
-2.38702e-06
-2.14544e-06
-1.95598e-06
-1.79584e-06
-1.64947e-06
-1.50856e-06
-1.37039e-06
-1.23546e-06
-1.10541e-06
-9.81716e-07
-8.65295e-07
-7.56706e-07
-6.56451e-07
-5.6522e-07
-4.83739e-07
-4.12555e-07
-3.5158e-07
-2.99945e-07
-2.5586e-07
-2.16833e-07
-1.79856e-07
-1.41715e-07
-9.92886e-08
-5.15544e-08
0.000126711
0.000126646
0.000126481
0.000126208
0.000125814
0.000125269
0.000124531
0.000123544
0.000122233
0.000120501
0.000118219
0.000115221
0.000111293
0.00010617
9.95183e-05
9.09353e-05
7.99434e-05
6.59983e-05
4.85111e-05
2.68938e-05
6.35457e-07
-3.05831e-05
-6.67335e-05
-0.000107255
-0.000150867
-0.000195441
-0.00023801
-0.000274998
-0.000302746
-0.000318253
-0.000319971
-0.000308321
-0.000285646
-0.000255556
-0.000221935
-0.000188076
-0.000156255
-0.00012775
-0.000103088
-8.2318e-05
-6.52004e-05
-5.13381e-05
-4.02645e-05
-3.15082e-05
-2.46356e-05
-1.92732e-05
-1.51125e-05
-1.19021e-05
-9.43565e-06
-7.54209e-06
-6.0827e-06
-4.95094e-06
-4.07096e-06
-3.39149e-06
-2.87633e-06
-2.49505e-06
-2.21745e-06
-2.0129e-06
-1.85293e-06
-1.7149e-06
-1.58402e-06
-1.45333e-06
-1.32164e-06
-1.19087e-06
-1.06372e-06
-9.42333e-07
-8.27983e-07
-7.21382e-07
-6.23133e-07
-5.34033e-07
-4.54918e-07
-3.86414e-07
-3.2843e-07
-2.79983e-07
-2.3907e-07
-2.02927e-07
-1.68293e-07
-1.31821e-07
-9.06044e-08
-4.45409e-08
0.000126918
0.000126861
0.000126716
0.000126475
0.000126125
0.000125637
0.00012497
0.000124071
0.000122867
0.000121261
0.000119126
0.000116296
0.000112558
0.000107641
0.000101207
9.28422e-05
8.20528e-05
6.82707e-05
5.08749e-05
2.9236e-05
2.79453e-06
-2.88209e-05
-6.56295e-05
-0.0001071
-0.000151947
-0.000197979
-0.000242099
-0.000280535
-0.000309386
-0.000325432
-0.000326999
-0.000314533
-0.000290558
-0.000258953
-0.000223863
-0.000188756
-0.000155979
-0.000126804
-0.00010172
-8.07249e-05
-6.35306e-05
-4.96965e-05
-3.87191e-05
-3.00974e-05
-2.33766e-05
-1.81693e-05
-1.41589e-05
-1.10897e-05
-8.75212e-06
-6.97281e-06
-5.61166e-06
-4.56239e-06
-3.75109e-06
-3.12943e-06
-2.66402e-06
-2.32623e-06
-2.08641e-06
-1.91361e-06
-1.77893e-06
-1.65968e-06
-1.54173e-06
-1.41931e-06
-1.29269e-06
-1.16512e-06
-1.0403e-06
-9.20949e-07
-8.08622e-07
-7.04114e-07
-6.08051e-07
-5.21264e-07
-4.44645e-07
-3.78869e-07
-3.23837e-07
-2.78476e-07
-2.40616e-07
-2.07275e-07
-1.74983e-07
-1.40231e-07
-9.98761e-08
-5.29147e-08
0.00012707
0.00012702
0.00012689
0.000126673
0.000126356
0.000125912
0.0001253
0.000124469
0.000123346
0.000121837
0.000119816
0.000117116
0.000113524
0.000108767
0.000102502
9.43084e-05
8.36782e-05
7.00255e-05
5.27041e-05
3.10525e-05
4.47235e-06
-2.74496e-05
-6.47716e-05
-0.000106988
-0.00015281
-0.000200002
-0.000245362
-0.00028496
-0.0003147
-0.000331184
-0.000332629
-0.000319503
-0.000294476
-0.000261652
-0.000225387
-0.000189289
-0.00015576
-0.000126063
-0.000100653
-7.94863e-05
-6.22361e-05
-4.84274e-05
-3.75273e-05
-2.90118e-05
-2.24094e-05
-1.73224e-05
-1.34283e-05
-1.04681e-05
-8.22981e-06
-6.53834e-06
-5.25231e-06
-4.2656e-06
-3.50601e-06
-2.92775e-06
-2.49981e-06
-2.19501e-06
-1.98402e-06
-1.83542e-06
-1.71973e-06
-1.6141e-06
-1.50487e-06
-1.38732e-06
-1.26297e-06
-1.13627e-06
-1.01179e-06
-8.92799e-07
-7.81058e-07
-6.77403e-07
-5.82435e-07
-4.9696e-07
-4.21878e-07
-3.57873e-07
-3.04825e-07
-2.61584e-07
-2.25844e-07
-1.94462e-07
-1.6383e-07
-1.304e-07
-9.129e-08
-4.63022e-08
0.000127164
0.000127117
0.000126997
0.000126796
0.000126502
0.000126086
0.000125512
0.000124725
0.000123657
0.000122213
0.000120267
0.000117655
0.000114161
0.000109512
0.000103362
9.52828e-05
8.47603e-05
7.11951e-05
5.3924e-05
3.22631e-05
5.5872e-06
-2.65462e-05
-6.4223e-05
-0.000106956
-0.000153456
-0.000201456
-0.000247684
-0.000288096
-0.000318463
-0.000335254
-0.000336613
-0.000323019
-0.00029725
-0.000263566
-0.000226478
-0.000189691
-0.00015564
-0.000125584
-9.99498e-05
-7.8665e-05
-6.13763e-05
-4.75846e-05
-3.67367e-05
-2.8293e-05
-2.17703e-05
-1.67641e-05
-1.2948e-05
-1.00611e-05
-7.88988e-06
-6.25764e-06
-5.02206e-06
-4.07711e-06
-3.35187e-06
-2.80249e-06
-2.39976e-06
-2.11756e-06
-1.92661e-06
-1.79498e-06
-1.69256e-06
-1.59623e-06
-1.49264e-06
-1.3778e-06
-1.25426e-06
-1.1274e-06
-1.00255e-06
-8.83395e-07
-7.71887e-07
-6.68868e-07
-5.7488e-07
-4.90669e-07
-4.17094e-07
-3.54807e-07
-3.03644e-07
-2.62378e-07
-2.28595e-07
-1.99027e-07
-1.69957e-07
-1.37763e-07
-9.9381e-08
-5.37941e-08
0.000127194
0.00012715
0.000127034
0.000126841
0.000126557
0.000126155
0.000125598
0.000124832
0.00012379
0.000122377
0.000120467
0.000117896
0.000114449
0.000109851
0.000103755
9.57304e-05
8.5258e-05
7.17325e-05
5.44819e-05
3.28108e-05
6.08061e-06
-2.61664e-05
-6.40302e-05
-0.000107033
-0.000153886
-0.000202305
-0.000248983
-0.000289818
-0.000320509
-0.000337458
-0.000338769
-0.000324928
-0.000298769
-0.000264637
-0.00022712
-0.000189973
-0.000155652
-0.000125407
-9.96539e-05
-7.83042e-05
-6.09912e-05
-4.72037e-05
-3.63781e-05
-2.79666e-05
-2.14803e-05
-1.65112e-05
-1.27313e-05
-9.87863e-06
-7.73887e-06
-6.1344e-06
-4.92218e-06
-3.99616e-06
-3.28612e-06
-2.74941e-06
-2.35792e-06
-2.08605e-06
-1.90448e-06
-1.78078e-06
-1.68425e-06
-1.59145e-06
-1.48912e-06
-1.37372e-06
-1.24845e-06
-1.11937e-06
-9.92327e-07
-8.71356e-07
-7.58539e-07
-6.54735e-07
-5.60426e-07
-4.76281e-07
-4.03093e-07
-3.41453e-07
-2.91131e-07
-2.50827e-07
-2.18041e-07
-1.89424e-07
-1.61206e-07
-1.29788e-07
-9.23382e-08
-4.84573e-08
0.000127162
0.000127116
0.000127
0.000126806
0.00012652
0.000126116
0.000125555
0.000124787
0.000123741
0.000122323
0.000120408
0.000117831
0.000114377
0.000109772
0.000103667
9.56333e-05
8.51506e-05
7.16139e-05
5.43511e-05
3.2667e-05
5.92302e-06
-2.63382e-05
-6.42164e-05
-0.000107233
-0.000154099
-0.00020253
-0.000249216
-0.000290056
-0.000320748
-0.000337693
-0.000338997
-0.000325145
-0.000298975
-0.000264831
-0.000227301
-0.000190144
-0.000155811
-0.000125554
-9.97889e-05
-7.84272e-05
-6.11026e-05
-4.73041e-05
-3.64684e-05
-2.80474e-05
-2.15524e-05
-1.65753e-05
-1.27883e-05
-9.92972e-06
-7.78502e-06
-6.17628e-06
-4.96008e-06
-4.0302e-06
-3.31652e-06
-2.77667e-06
-2.38281e-06
-2.10943e-06
-1.927e-06
-1.80266e-06
-1.70527e-06
-1.61105e-06
-1.50659e-06
-1.38845e-06
-1.26008e-06
-1.12785e-06
-9.97906e-07
-8.7448e-07
-7.59762e-07
-6.54626e-07
-5.59513e-07
-4.75016e-07
-4.01843e-07
-3.405e-07
-2.90678e-07
-2.50999e-07
-2.18898e-07
-1.90977e-07
-1.63436e-07
-1.3267e-07
-9.57733e-08
-5.19903e-08
0.000127065
0.000127018
0.000126895
0.000126691
0.000126391
0.000125968
0.000125385
0.000124589
0.000123509
0.000122051
0.00012009
0.00011746
0.000113946
0.000109274
0.000103099
9.49925e-05
8.44393e-05
7.08406e-05
5.35332e-05
3.18334e-05
5.11659e-06
-2.70592e-05
-6.47786e-05
-0.000107553
-0.000154091
-0.000202125
-0.000248378
-0.000288805
-0.000319175
-0.000335956
-0.000337293
-0.000323668
-0.000297863
-0.000264144
-0.000227021
-0.000190199
-0.000156114
-0.000126023
-0.000100353
-7.9032e-05
-6.17088e-05
-4.78845e-05
-3.70065e-05
-2.85346e-05
-2.19857e-05
-1.69555e-05
-1.31183e-05
-1.02135e-05
-8.02725e-06
-6.38196e-06
-5.13418e-06
-4.17737e-06
-3.44086e-06
-2.88165e-06
-2.47134e-06
-2.18397e-06
-1.9897e-06
-1.85539e-06
-1.74962e-06
-1.64824e-06
-1.53753e-06
-1.41377e-06
-1.28022e-06
-1.1432e-06
-1.00888e-06
-8.81571e-07
-7.63533e-07
-6.55683e-07
-5.58446e-07
-4.72363e-07
-3.98051e-07
-3.35919e-07
-2.85565e-07
-2.45541e-07
-2.13232e-07
-1.85222e-07
-1.57722e-07
-1.27176e-07
-9.08238e-08
-4.83078e-08
0.000126907
0.000126855
0.000126721
0.000126497
0.000126172
0.000125716
0.000125091
0.000124243
0.000123101
0.000121569
0.000119522
0.000116792
0.000113167
0.000108373
0.000102068
9.38275e-05
8.31468e-05
6.94389e-05
5.20578e-05
3.03425e-05
3.69514e-06
-2.82962e-05
-6.56879e-05
-0.000107972
-0.000153857
-0.000201102
-0.000246503
-0.000286125
-0.00031587
-0.000332337
-0.000333747
-0.000320571
-0.000295487
-0.000262603
-0.000226281
-0.000190128
-0.000156542
-0.000126788
-0.000101319
-8.00926e-05
-6.27855e-05
-4.89233e-05
-3.79734e-05
-2.94116e-05
-2.27662e-05
-1.76398e-05
-1.37109e-05
-1.07211e-05
-8.45809e-06
-6.74513e-06
-5.43914e-06
-4.43316e-06
-3.65534e-06
-3.06119e-06
-2.62093e-06
-2.3077e-06
-2.09124e-06
-1.93826e-06
-1.81718e-06
-1.70353e-06
-1.58305e-06
-1.45136e-06
-1.31116e-06
-1.16832e-06
-1.02878e-06
-8.96805e-07
-7.74685e-07
-6.63392e-07
-5.63373e-07
-4.75124e-07
-3.99177e-07
-3.35823e-07
-2.84557e-07
-2.43851e-07
-2.11056e-07
-1.82757e-07
-1.55195e-07
-1.24847e-07
-8.89754e-08
-4.73507e-08
0.000126691
0.000126632
0.000126481
0.000126231
0.000125868
0.000125364
0.000124679
0.000123757
0.000122526
0.000120888
0.000118718
0.000115847
0.000112063
0.000107095
0.000100604
9.21755e-05
8.13165e-05
6.74585e-05
4.99807e-05
2.82544e-05
1.72106e-06
-2.99889e-05
-6.68925e-05
-0.000108455
-0.000153386
-0.000199492
-0.000243667
-0.000282134
-0.000310991
-0.000327015
-0.000328534
-0.000316001
-0.000291949
-0.000260264
-0.000225096
-0.000189912
-0.000157057
-0.000127803
-0.000102638
-8.15622e-05
-6.42899e-05
-5.03823e-05
-3.93366e-05
-3.06514e-05
-2.38714e-05
-1.86099e-05
-1.45516e-05
-1.14415e-05
-9.06933e-06
-7.26004e-06
-5.87122e-06
-4.79536e-06
-3.95896e-06
-3.31524e-06
-2.83237e-06
-2.48214e-06
-2.23377e-06
-2.05389e-06
-1.91087e-06
-1.77992e-06
-1.64604e-06
-1.50392e-06
-1.35527e-06
-1.20522e-06
-1.05925e-06
-9.2144e-07
-7.94092e-07
-6.78249e-07
-5.74401e-07
-4.83022e-07
-4.04553e-07
-3.39159e-07
-2.86219e-07
-2.44127e-07
-2.10213e-07
-1.81081e-07
-1.53022e-07
-1.22556e-07
-8.69681e-08
-4.6075e-08
0.000126421
0.000126354
0.000126181
0.000125896
0.000125487
0.000124922
0.00012416
0.000123143
0.000121799
0.000120027
0.000117699
0.000114649
0.000110664
0.000105476
9.87517e-05
9.00889e-05
7.90093e-05
6.49689e-05
4.7379e-05
2.56524e-05
-7.20473e-07
-3.20566e-05
-6.83246e-05
-0.000108959
-0.000152676
-0.000197339
-0.000239974
-0.000277002
-0.000304756
-0.000320235
-0.000321895
-0.000310164
-0.000287395
-0.000257206
-0.000223488
-0.000189532
-0.000157614
-0.000129009
-0.000104246
-8.33755e-05
-6.61603e-05
-5.22059e-05
-4.10465e-05
-3.22105e-05
-2.52638e-05
-1.98335e-05
-1.56125e-05
-1.23503e-05
-9.8399e-06
-7.90827e-06
-6.41401e-06
-5.24906e-06
-4.33785e-06
-3.63079e-06
-3.09342e-06
-2.69584e-06
-2.40657e-06
-2.19222e-06
-2.02116e-06
-1.86823e-06
-1.71754e-06
-1.56258e-06
-1.4038e-06
-1.24529e-06
-1.09189e-06
-9.47372e-07
-8.14012e-07
-6.92918e-07
-5.8463e-07
-4.896e-07
-4.08169e-07
-3.40365e-07
-2.8544e-07
-2.41711e-07
-2.06493e-07
-1.76432e-07
-1.47878e-07
-1.17408e-07
-8.235e-08
-4.28073e-08
0.000126104
0.000126026
0.000125828
0.000125503
0.000125037
0.000124399
0.000123546
0.000122417
0.000120938
0.000119007
0.000116494
0.000113232
0.00010901
0.000103563
9.65678e-05
8.76327e-05
7.63004e-05
6.20551e-05
4.43466e-05
2.26362e-05
-3.52878e-06
-3.44051e-05
-6.99079e-05
-0.00010944
-0.000151727
-0.000194708
-0.000235561
-0.000270932
-0.000297428
-0.000312291
-0.000314116
-0.000303301
-0.000282001
-0.000253532
-0.000221492
-0.000188974
-0.000158166
-0.00013034
-0.000106069
-8.54578e-05
-6.83262e-05
-5.433e-05
-4.30473e-05
-3.40413e-05
-2.69034e-05
-2.12776e-05
-1.68668e-05
-1.34267e-05
-1.07542e-05
-8.67867e-06
-7.06009e-06
-5.78982e-06
-4.79004e-06
-4.00797e-06
-3.40613e-06
-2.95264e-06
-2.61515e-06
-2.36018e-06
-2.15608e-06
-1.97727e-06
-1.80688e-06
-1.63697e-06
-1.46653e-06
-1.29843e-06
-1.13669e-06
-9.84685e-07
-8.44603e-07
-7.17592e-07
-6.04236e-07
-5.04955e-07
-4.19985e-07
-3.49213e-07
-2.9177e-07
-2.45908e-07
-2.08953e-07
-1.77612e-07
-1.48313e-07
-1.1767e-07
-8.29252e-08
-4.38387e-08
0.000125747
0.000125658
0.00012543
0.000125059
0.000124529
0.00012381
0.000122853
0.000121597
0.000119966
0.000117855
0.000115133
0.000111634
0.000107146
0.000101412
9.41156e-05
8.48815e-05
7.3275e-05
5.88126e-05
4.09876e-05
1.9315e-05
-6.59545e-06
-3.69358e-05
-7.15653e-05
-0.000109857
-0.000150552
-0.000191678
-0.000230579
-0.000264153
-0.000289291
-0.000303494
-0.000305501
-0.000295675
-0.00027596
-0.000249358
-0.000219156
-0.000188231
-0.000158666
-0.000131728
-0.000108027
-8.77271e-05
-7.07077e-05
-5.66805e-05
-4.52719e-05
-3.60843e-05
-2.87381e-05
-2.28967e-05
-1.82753e-05
-1.46368e-05
-1.17826e-05
-9.5454e-06
-7.7865e-06
-6.39686e-06
-5.29635e-06
-4.42885e-06
-3.75366e-06
-3.23665e-06
-2.84446e-06
-2.54336e-06
-2.30165e-06
-2.09325e-06
-1.90024e-06
-1.71317e-06
-1.52943e-06
-1.35053e-06
-1.17953e-06
-1.01935e-06
-8.71979e-07
-7.3856e-07
-6.19683e-07
-5.15719e-07
-4.26787e-07
-3.52635e-07
-2.92289e-07
-2.4396e-07
-2.05013e-07
-1.72244e-07
-1.4218e-07
-1.11502e-07
-7.74942e-08
-4.01135e-08
0.000125358
0.000125257
0.000124997
0.000124575
0.000123976
0.000123167
0.000122097
0.000120704
0.000118906
0.0001166
0.000113653
0.000109896
0.000105124
9.90815e-05
9.1465e-05
8.19156e-05
7.0024e-05
5.53423e-05
3.74104e-05
1.58007e-05
-9.8117e-06
-3.95526e-05
-7.32258e-05
-0.000110177
-0.000149174
-0.000188337
-0.000225195
-0.000256899
-0.000280634
-0.000294161
-0.000296357
-0.000287552
-0.000269475
-0.000244813
-0.000216541
-0.000187305
-0.00015908
-0.000133111
-0.000110045
-9.01029e-05
-7.32254e-05
-5.91829e-05
-4.76532e-05
-3.82806e-05
-3.07171e-05
-2.46481e-05
-1.98026e-05
-1.59519e-05
-1.29028e-05
-1.04914e-05
-8.58076e-06
-7.06155e-06
-5.85143e-06
-4.89096e-06
-4.13612e-06
-3.55036e-06
-3.09909e-06
-2.74819e-06
-2.46579e-06
-2.22527e-06
-2.00763e-06
-1.8019e-06
-1.6038e-06
-1.41341e-06
-1.23276e-06
-1.06415e-06
-9.09322e-07
-7.69331e-07
-6.44722e-07
-5.35786e-07
-4.42529e-07
-3.64574e-07
-3.00872e-07
-2.49635e-07
-2.08302e-07
-1.7379e-07
-1.42741e-07
-1.11887e-07
-7.83885e-08
-4.17203e-08
0.000124947
0.000124832
0.000124539
0.000124063
0.000123391
0.000122486
0.000121297
0.000119759
0.000117787
0.000115275
0.000112091
0.000108066
0.000102996
9.66344e-05
8.86884e-05
7.88177e-05
6.66402e-05
5.17457e-05
3.37224e-05
1.22021e-05
-1.30745e-05
-4.21675e-05
-7.48284e-05
-0.000110382
-0.000147626
-0.000184785
-0.000219573
-0.000249399
-0.000271735
-0.00028459
-0.000286977
-0.000279187
-0.000262745
-0.000240033
-0.000213717
-0.000186215
-0.000159382
-0.000134437
-0.000112054
-9.2508e-05
-7.58007e-05
-6.17614e-05
-5.01207e-05
-4.05663e-05
-3.27838e-05
-2.6482e-05
-2.14052e-05
-1.73342e-05
-1.40819e-05
-1.1488e-05
-9.41772e-06
-7.76151e-06
-6.43509e-06
-5.37583e-06
-4.53642e-06
-3.8778e-06
-3.36396e-06
-2.96024e-06
-2.63445e-06
-2.35947e-06
-2.1152e-06