/*--------------------------------*- C++ -*----------------------------------*\
| =========                 |                                                 |
| \\      /  F ield         | OpenFOAM: The Open Source CFD Toolbox           |
|  \\    /   O peration     | Version:  2512                                  |
|   \\  /    A nd           | Website:  www.openfoam.com                      |
|    \\/     M anipulation  |                                                 |
\*---------------------------------------------------------------------------*/
FoamFile
{
    version     2.0;
    format      ascii;
    arch        "LSB;label=32;scalar=64";
    class       volScalarField;
    location    "132";
    object      p;
}
// * * * * * * * * * * * * * * * * * * * * * * * * * * * * * * * * * * * * * //

dimensions      [0 2 -2 0 0 0 0];

internalField   nonuniform List<scalar> 
240106
(
2.15372e-05
2.15127e-05
2.14493e-05
2.13477e-05
2.12059e-05
2.10183e-05
2.07766e-05
2.04713e-05
2.00907e-05
1.9621e-05
1.90464e-05
1.83485e-05
1.75073e-05
1.65011e-05
1.53073e-05
1.39037e-05
1.22698e-05
1.03895e-05
8.25334e-06
5.86191e-06
3.22945e-06
3.87197e-07
-2.61374e-06
-5.70101e-06
-8.78184e-06
-1.17468e-05
-1.44768e-05
-1.68539e-05
-1.87734e-05
-2.01562e-05
-2.09597e-05
-2.11829e-05
-2.08656e-05
-2.00814e-05
-1.89265e-05
-1.75063e-05
-1.59238e-05
-1.42707e-05
-1.26224e-05
-1.10363e-05
-9.55249e-06
-8.19578e-06
-6.97855e-06
-5.90365e-06
-4.96702e-06
-4.16004e-06
-3.47144e-06
-2.88861e-06
-2.39874e-06
-1.9894e-06
-1.64903e-06
-1.36716e-06
-1.13449e-06
-9.42909e-07
-7.85453e-07
-6.56184e-07
-5.50107e-07
-4.63041e-07
-3.91508e-07
-3.32628e-07
-2.84023e-07
-2.43744e-07
-2.10205e-07
-1.82119e-07
-1.58445e-07
-1.38344e-07
-1.21131e-07
-1.06248e-07
-9.32417e-08
-8.17434e-08
-7.14587e-08
-6.21531e-08
-5.36416e-08
-4.57756e-08
-3.84334e-08
-3.15123e-08
-2.49218e-08
-1.85856e-08
-1.23637e-08
-7.04378e-09
2.15444e-05
2.152e-05
2.14573e-05
2.13566e-05
2.12162e-05
2.10302e-05
2.07907e-05
2.0488e-05
2.01104e-05
1.96443e-05
1.90736e-05
1.83802e-05
1.75437e-05
1.65424e-05
1.53534e-05
1.39541e-05
1.23236e-05
1.04451e-05
8.30837e-06
5.91337e-06
3.27354e-06
4.19559e-07
-2.59773e-06
-5.70573e-06
-8.81077e-06
-1.18018e-05
-1.45575e-05
-1.69572e-05
-1.88933e-05
-2.02851e-05
-2.10885e-05
-2.13029e-05
-2.09695e-05
-2.01645e-05
-1.89867e-05
-1.75441e-05
-1.59415e-05
-1.42717e-05
-1.26106e-05
-1.10154e-05
-9.52576e-06
-8.16604e-06
-6.94795e-06
-5.87373e-06
-4.93882e-06
-4.13422e-06
-3.44829e-06
-2.86824e-06
-2.38106e-06
-1.97424e-06
-1.63617e-06
-1.35633e-06
-1.12545e-06
-9.35408e-07
-7.79259e-07
-6.51092e-07
-5.45935e-07
-4.59634e-07
-3.88734e-07
-3.30374e-07
-2.82194e-07
-2.42262e-07
-2.09004e-07
-1.81145e-07
-1.57656e-07
-1.37704e-07
-1.20614e-07
-1.05831e-07
-9.29063e-08
-8.1474e-08
-7.12421e-08
-6.1979e-08
-5.35019e-08
-4.56643e-08
-3.83461e-08
-3.14454e-08
-2.4872e-08
-1.85485e-08
-1.23417e-08
-6.97156e-09
2.15584e-05
2.15345e-05
2.1473e-05
2.13742e-05
2.12364e-05
2.10538e-05
2.08185e-05
2.05208e-05
2.01492e-05
1.96901e-05
1.91273e-05
1.84426e-05
1.76156e-05
1.6624e-05
1.54445e-05
1.40538e-05
1.24301e-05
1.05552e-05
8.41764e-06
6.01573e-06
3.36149e-06
4.84412e-07
-2.56518e-06
-5.71426e-06
-8.86738e-06
-1.19103e-05
-1.47172e-05
-1.71619e-05
-1.91317e-05
-2.05413e-05
-2.13447e-05
-2.15414e-05
-2.11761e-05
-2.03295e-05
-1.91061e-05
-1.76188e-05
-1.59763e-05
-1.42734e-05
-1.25868e-05
-1.09736e-05
-9.47266e-06
-8.10703e-06
-6.88726e-06
-5.81443e-06
-4.88298e-06
-4.08308e-06
-3.40247e-06
-2.82791e-06
-2.34606e-06
-1.94424e-06
-1.61071e-06
-1.33492e-06
-1.10756e-06
-9.20564e-07
-7.67003e-07
-6.41015e-07
-5.37681e-07
-4.52896e-07
-3.83249e-07
-3.2592e-07
-2.78584e-07
-2.39338e-07
-2.06635e-07
-1.79224e-07
-1.56099e-07
-1.36444e-07
-1.19595e-07
-1.05009e-07
-9.22439e-08
-8.09401e-08
-7.08109e-08
-6.16302e-08
-5.322e-08
-4.54382e-08
-3.81677e-08
-3.13081e-08
-2.47699e-08
-1.8475e-08
-1.22902e-08
-6.91363e-09
2.1579e-05
2.15557e-05
2.1496e-05
2.14e-05
2.12661e-05
2.10885e-05
2.08593e-05
2.05691e-05
2.02064e-05
1.97575e-05
1.92065e-05
1.85348e-05
1.77217e-05
1.67446e-05
1.55793e-05
1.42015e-05
1.25879e-05
1.07187e-05
8.58017e-06
6.16836e-06
3.49304e-06
5.81948e-07
-2.51548e-06
-5.7256e-06
-8.95042e-06
-1.20709e-05
-1.49545e-05
-1.74669e-05
-1.94872e-05
-2.09236e-05
-2.17266e-05
-2.18968e-05
-2.14832e-05
-2.05741e-05
-1.92824e-05
-1.77284e-05
-1.60264e-05
-1.42745e-05
-1.25503e-05
-1.09107e-05
-9.39318e-06
-8.01905e-06
-6.79703e-06
-5.72645e-06
-4.80027e-06
-4.00743e-06
-3.33477e-06
-2.76837e-06
-2.29445e-06
-1.90003e-06
-1.57321e-06
-1.30339e-06
-1.08125e-06
-8.98733e-07
-7.48984e-07
-6.26207e-07
-5.25557e-07
-4.43002e-07
-3.752e-07
-3.19387e-07
-2.73289e-07
-2.35049e-07
-2.03159e-07
-1.76407e-07
-1.53815e-07
-1.34593e-07
-1.18097e-07
-1.03799e-07
-9.12668e-08
-8.01493e-08
-7.01689e-08
-6.11075e-08
-5.27949e-08
-4.50952e-08
-3.78957e-08
-3.10983e-08
-2.46138e-08
-1.83638e-08
-1.22155e-08
-6.86032e-09
2.16056e-05
2.15833e-05
2.15259e-05
2.14335e-05
2.13046e-05
2.11334e-05
2.09122e-05
2.06318e-05
2.02806e-05
1.98452e-05
1.93094e-05
1.86546e-05
1.78598e-05
1.69017e-05
1.57551e-05
1.43945e-05
1.27945e-05
1.09332e-05
8.79388e-06
6.36967e-06
3.66731e-06
7.1209e-07
-2.44782e-06
-5.7381e-06
-9.0575e-06
-1.22808e-05
-1.52662e-05
-1.78688e-05
-1.99564e-05
-2.14284e-05
-2.22308e-05
-2.23652e-05
-2.18868e-05
-2.08944e-05
-1.95118e-05
-1.78698e-05
-1.60895e-05
-1.42733e-05
-1.25003e-05
-1.08266e-05
-9.28786e-06
-7.90309e-06
-6.67853e-06
-5.61122e-06
-4.69215e-06
-3.90872e-06
-3.24656e-06
-2.69088e-06
-2.22735e-06
-1.84259e-06
-1.52454e-06
-1.26249e-06
-1.04712e-06
-8.70435e-07
-7.25636e-07
-6.07026e-07
-5.09857e-07
-4.30195e-07
-3.64783e-07
-3.10934e-07
-2.6644e-07
-2.29501e-07
-1.98664e-07
-1.72762e-07
-1.5086e-07
-1.32199e-07
-1.16161e-07
-1.02235e-07
-9.00018e-08
-7.9124e-08
-6.93347e-08
-6.0427e-08
-5.22409e-08
-4.46485e-08
-3.75427e-08
-3.08279e-08
-2.44156e-08
-1.8227e-08
-1.21301e-08
-6.81468e-09
2.16376e-05
2.16164e-05
2.15617e-05
2.14738e-05
2.13509e-05
2.11875e-05
2.0976e-05
2.07073e-05
2.03702e-05
1.9951e-05
1.94337e-05
1.87996e-05
1.80271e-05
1.70922e-05
1.59688e-05
1.46294e-05
1.30466e-05
1.11955e-05
9.05611e-06
6.61766e-06
3.88317e-06
8.74741e-07
-2.36117e-06
-5.74963e-06
-9.18554e-06
-1.2536e-05
-1.56481e-05
-1.8363e-05
-2.05347e-05
-2.20511e-05
-2.28526e-05
-2.29417e-05
-2.23822e-05
-2.12854e-05
-1.979e-05
-1.80389e-05
-1.61626e-05
-1.42681e-05
-1.2436e-05
-1.07213e-05
-9.15742e-06
-7.76039e-06
-6.53333e-06
-5.47049e-06
-4.56046e-06
-3.78874e-06
-3.13952e-06
-2.597e-06
-2.14614e-06
-1.77315e-06
-1.46575e-06
-1.21312e-06
-1.00596e-06
-8.36319e-07
-6.975e-07
-5.8392e-07
-4.90952e-07
-4.14778e-07
-3.52248e-07
-3.00765e-07
-2.58202e-07
-2.22828e-07
-1.93257e-07
-1.68378e-07
-1.47306e-07
-1.29321e-07
-1.13833e-07
-1.00353e-07
-8.8479e-08
-7.7888e-08
-6.83272e-08
-5.96035e-08
-5.15694e-08
-4.41067e-08
-3.71147e-08
-3.05008e-08
-2.41769e-08
-1.80637e-08
-1.20301e-08
-6.76623e-09
2.16742e-05
2.16542e-05
2.16028e-05
2.15199e-05
2.14039e-05
2.12494e-05
2.10491e-05
2.0794e-05
2.0473e-05
2.00726e-05
1.95768e-05
1.89665e-05
1.822e-05
1.73123e-05
1.6216e-05
1.49018e-05
1.33398e-05
1.15015e-05
9.36311e-06
6.90934e-06
4.13864e-06
1.06923e-06
-2.25475e-06
-5.75792e-06
-9.33086e-06
-1.28318e-05
-1.60945e-05
-1.89435e-05
-2.12157e-05
-2.27853e-05
-2.35851e-05
-2.36194e-05
-2.29621e-05
-2.17406e-05
-2.01108e-05
-1.82311e-05
-1.62422e-05
-1.42566e-05
-1.23564e-05
-1.0595e-05
-9.00301e-06
-7.5927e-06
-6.3636e-06
-5.30662e-06
-4.40759e-06
-3.64982e-06
-3.01585e-06
-2.48872e-06
-2.05261e-06
-1.69329e-06
-1.3982e-06
-1.15646e-06
-9.58756e-07
-7.97223e-07
-6.65278e-07
-5.57473e-07
-4.69326e-07
-3.97153e-07
-3.37926e-07
-2.89154e-07
-2.488e-07
-2.15218e-07
-1.87093e-07
-1.63384e-07
-1.4326e-07
-1.26047e-07
-1.11189e-07
-9.82195e-08
-8.67561e-08
-7.6492e-08
-6.71916e-08
-5.8678e-08
-5.08179e-08
-4.35045e-08
-3.66442e-08
-3.01475e-08
-2.39265e-08
-1.79011e-08
-1.19403e-08
-6.73254e-09
2.17145e-05
2.16959e-05
2.1648e-05
2.15707e-05
2.14623e-05
2.13177e-05
2.11298e-05
2.08897e-05
2.05866e-05
2.02071e-05
1.97352e-05
1.91518e-05
1.84344e-05
1.75574e-05
1.64919e-05
1.52065e-05
1.36686e-05
1.18459e-05
9.71011e-06
7.24073e-06
4.43094e-06
1.29429e-06
-2.12803e-06
-5.76051e-06
-9.48918e-06
-1.31623e-05
-1.65982e-05
-1.96022e-05
-2.1991e-05
-2.3622e-05
-2.44194e-05
-2.43894e-05
-2.3618e-05
-2.22518e-05
-2.04674e-05
-1.84408e-05
-1.63245e-05
-1.42369e-05
-1.22611e-05
-1.04486e-05
-8.8264e-06
-7.40247e-06
-6.17214e-06
-5.12258e-06
-4.2365e-06
-3.49477e-06
-2.87814e-06
-2.36838e-06
-1.94884e-06
-1.6048e-06
-1.32345e-06
-1.09381e-06
-9.06612e-07
-7.54068e-07
-6.29731e-07
-5.28312e-07
-4.4549e-07
-3.77735e-07
-3.22153e-07
-2.7637e-07
-2.3845e-07
-2.06838e-07
-1.80305e-07
-1.57881e-07
-1.38801e-07
-1.22439e-07
-1.08273e-07
-9.58646e-08
-8.4851e-08
-7.49444e-08
-6.59278e-08
-5.76427e-08
-4.99722e-08
-4.28218e-08
-3.61054e-08
-2.97368e-08
-2.3628e-08
-1.7698e-08
-1.18167e-08
-6.67344e-09
2.17574e-05
2.17403e-05
2.16961e-05
2.16248e-05
2.15247e-05
2.13907e-05
2.12161e-05
2.09921e-05
2.07083e-05
2.03514e-05
1.99054e-05
1.9351e-05
1.86654e-05
1.7822e-05
1.67905e-05
1.55373e-05
1.40266e-05
1.22224e-05
1.00911e-05
7.60659e-06
4.75609e-06
1.54766e-06
-1.98116e-06
-5.75518e-06
-9.6558e-06
-1.35205e-05
-1.71504e-05
-2.03288e-05
-2.28493e-05
-2.45496e-05
-2.53438e-05
-2.524e-05
-2.43389e-05
-2.28092e-05
-2.08516e-05
-1.86619e-05
-1.64056e-05
-1.42071e-05
-1.21501e-05
-1.02836e-05
-8.63004e-06
-7.19279e-06
-5.96241e-06
-4.92192e-06
-4.05066e-06
-3.32687e-06
-2.72941e-06
-2.23869e-06
-1.83722e-06
-1.50976e-06
-1.24327e-06
-1.0267e-06
-8.50814e-07
-7.07931e-07
-5.9176e-07
-4.97185e-07
-4.20066e-07
-3.5704e-07
-3.05358e-07
-2.62771e-07
-2.27451e-07
-1.97942e-07
-1.73104e-07
-1.52052e-07
-1.34086e-07
-1.18633e-07
-1.05208e-07
-9.33997e-08
-8.28665e-08
-7.33412e-08
-6.46272e-08
-5.65861e-08
-4.91186e-08
-4.21435e-08
-3.55824e-08
-2.93521e-08
-2.33643e-08
-1.75367e-08
-1.17383e-08
-6.65472e-09
2.18019e-05
2.17863e-05
2.17461e-05
2.1681e-05
2.15894e-05
2.14666e-05
2.13058e-05
2.10988e-05
2.08352e-05
2.0502e-05
2.00833e-05
1.95596e-05
1.89077e-05
1.81001e-05
1.71051e-05
1.58868e-05
1.44063e-05
1.26231e-05
1.04986e-05
8.0003e-06
5.10877e-06
1.82593e-06
-1.81511e-06
-5.74005e-06
-9.8258e-06
-1.38984e-05
-1.77405e-05
-2.11107e-05
-2.37764e-05
-2.55532e-05
-2.63431e-05
-2.61568e-05
-2.51115e-05
-2.34015e-05
-2.12545e-05
-1.88882e-05
-1.6482e-05
-1.41661e-05
-1.20242e-05
-1.0102e-05
-8.41723e-06
-6.9676e-06
-5.73861e-06
-4.70886e-06
-3.85411e-06
-3.14989e-06
-2.57305e-06
-2.10265e-06
-1.72035e-06
-1.41042e-06
-1.15958e-06
-9.56737e-07
-7.92699e-07
-6.59918e-07
-5.52269e-07
-4.64829e-07
-3.93649e-07
-3.35544e-07
-2.87918e-07
-2.48651e-07
-2.16027e-07
-1.88696e-07
-1.65613e-07
-1.4598e-07
-1.29167e-07
-1.14655e-07
-1.01996e-07
-9.08068e-08
-8.07673e-08
-7.16318e-08
-6.32261e-08
-5.54334e-08
-4.81729e-08
-4.1377e-08
-3.49752e-08
-2.88866e-08
-2.30223e-08
-1.72986e-08
-1.1586e-08
-6.57415e-09
2.18468e-05
2.18327e-05
2.17965e-05
2.17378e-05
2.1655e-05
2.15434e-05
2.13967e-05
2.1207e-05
2.09641e-05
2.06553e-05
2.02646e-05
1.97725e-05
1.91555e-05
1.83852e-05
1.74284e-05
1.62471e-05
1.4799e-05
1.30393e-05
1.09239e-05
8.41371e-06
5.48212e-06
2.12419e-06
-1.63208e-06
-5.71396e-06
-9.99424e-06
-1.42873e-05
-1.8356e-05
-2.19325e-05
-2.47549e-05
-2.66142e-05
-2.73987e-05
-2.71222e-05
-2.59201e-05
-2.40156e-05
-2.16661e-05
-1.91132e-05
-1.65504e-05
-1.41133e-05
-1.18851e-05
-9.90738e-06
-8.19224e-06
-6.73167e-06
-5.50567e-06
-4.48823e-06
-3.65142e-06
-2.96799e-06
-2.4128e-06
-1.96357e-06
-1.60112e-06
-1.30924e-06
-1.07448e-06
-8.85691e-07
-7.33763e-07
-6.11283e-07
-5.12309e-07
-4.32122e-07
-3.66976e-07
-3.13868e-07
-2.70358e-07
-2.34456e-07
-2.04563e-07
-1.79435e-07
-1.58128e-07
-1.39931e-07
-1.24288e-07
-1.10732e-07
-9.88532e-08
-8.82922e-08
-7.87525e-08
-7.00107e-08
-6.19159e-08
-5.43744e-08
-4.73248e-08
-4.07131e-08
-3.44756e-08
-2.85331e-08
-2.27953e-08
-1.71762e-08
-1.15448e-08
-6.58507e-09
2.18909e-05
2.18785e-05
2.18462e-05
2.17938e-05
2.17196e-05
2.16192e-05
2.14866e-05
2.13141e-05
2.10918e-05
2.08072e-05
2.04446e-05
1.99844e-05
1.94026e-05
1.86701e-05
1.77524e-05
1.66092e-05
1.51951e-05
1.3461e-05
1.13569e-05
8.83714e-06
5.8676e-06
2.43595e-06
-1.43564e-06
-5.67671e-06
-1.01564e-05
-1.46777e-05
-1.89827e-05
-2.27757e-05
-2.57636e-05
-2.77099e-05
-2.84883e-05
-2.81151e-05
-2.67466e-05
-2.46371e-05
-2.20764e-05
-1.93308e-05
-1.66084e-05
-1.40494e-05
-1.17356e-05
-9.70392e-06
-7.96031e-06
-6.49062e-06
-5.26923e-06
-4.26542e-06
-3.44756e-06
-2.78565e-06
-2.25262e-06
-1.82488e-06
-1.48245e-06
-1.20872e-06
-9.9005e-07
-8.15295e-07
-6.75425e-07
-5.63179e-07
-4.72807e-07
-3.99801e-07
-3.40622e-07
-2.92452e-07
-2.53005e-07
-2.20419e-07
-1.93212e-07
-1.70246e-07
-1.5068e-07
-1.33892e-07
-1.19397e-07
-1.06779e-07
-9.56632e-08
-8.57146e-08
-7.66585e-08
-6.82943e-08
-6.04963e-08
-5.31949e-08
-4.63486e-08
-3.99165e-08
-3.38409e-08
-2.80431e-08
-2.24303e-08
-1.69144e-08
-1.13664e-08
-6.47932e-09
2.19332e-05
2.19222e-05
2.18938e-05
2.18475e-05
2.17816e-05
2.1692e-05
2.15731e-05
2.14173e-05
2.1215e-05
2.09541e-05
2.06189e-05
2.01898e-05
1.96426e-05
1.89476e-05
1.80687e-05
1.69638e-05
1.55843e-05
1.38769e-05
1.17861e-05
9.25946e-06
6.25508e-06
2.75299e-06
-1.23097e-06
-5.6293e-06
-1.03083e-05
-1.50596e-05
-1.9605e-05
-2.36197e-05
-2.67777e-05
-2.88137e-05
-2.95851e-05
-2.91113e-05
-2.75705e-05
-2.52504e-05
-2.24747e-05
-1.95356e-05
-1.66546e-05
-1.39763e-05
-1.15799e-05
-9.49715e-06
-7.72765e-06
-6.25088e-06
-5.03557e-06
-4.04632e-06
-3.24792e-06
-2.6077e-06
-2.09674e-06
-1.69025e-06
-1.3675e-06
-1.11154e-06
-9.08565e-07
-7.47466e-07
-6.19301e-07
-5.16969e-07
-4.34916e-07
-3.68846e-07
-3.15429e-07
-2.72025e-07
-2.36497e-07
-2.07107e-07
-1.82483e-07
-1.61596e-07
-1.43703e-07
-1.28273e-07
-1.14888e-07
-1.03179e-07
-9.28027e-08
-8.34449e-08
-7.48518e-08
-6.68465e-08
-5.93295e-08
-5.2256e-08
-4.56048e-08
-3.93475e-08
-3.34313e-08
-2.77761e-08
-2.22852e-08
-1.68665e-08
-1.13883e-08
-6.53437e-09
2.19725e-05
2.19629e-05
2.1938e-05
2.18974e-05
2.18394e-05
2.176e-05
2.16539e-05
2.15138e-05
2.13305e-05
2.10919e-05
2.07827e-05
2.03833e-05
1.98692e-05
1.921e-05
1.83687e-05
1.7301e-05
1.59558e-05
1.42755e-05
1.21993e-05
9.6683e-06
6.63296e-06
3.06552e-06
-1.02483e-06
-5.57408e-06
-1.04464e-05
-1.54231e-05
-2.02059e-05
-2.44411e-05
-2.77692e-05
-2.98951e-05
-3.06591e-05
-3.00835e-05
-2.83694e-05
-2.5839e-05
-2.2851e-05
-1.97227e-05
-1.66889e-05
-1.38969e-05
-1.14231e-05
-9.29355e-06
-7.50126e-06
-6.01947e-06
-4.81137e-06
-3.83708e-06
-3.05799e-06
-2.43894e-06
-1.94931e-06
-1.56319e-06
-1.25923e-06
-1.02014e-06
-8.32041e-07
-6.83837e-07
-5.66697e-07
-4.73679e-07
-3.99425e-07
-3.39849e-07
-2.9182e-07
-2.52869e-07
-2.20997e-07
-1.9458e-07
-1.72354e-07
-1.53389e-07
-1.37043e-07
-1.22868e-07
-1.10511e-07
-9.9646e-08
-8.9953e-08
-8.11377e-08
-7.29649e-08
-6.52813e-08
-5.80139e-08
-5.11438e-08
-4.46701e-08
-3.8576e-08
-3.2812e-08
-2.72953e-08
-2.19238e-08
-1.66014e-08
-1.11982e-08
-6.41077e-09
2.20078e-05
2.19994e-05
2.19778e-05
2.19424e-05
2.18915e-05
2.18214e-05
2.1727e-05
2.16012e-05
2.14352e-05
2.12171e-05
2.09317e-05
2.05596e-05
2.0076e-05
1.94501e-05
1.86438e-05
1.76112e-05
1.62985e-05
1.46445e-05
1.25836e-05
1.00505e-05
6.98851e-06
3.36238e-06
-8.25415e-07
-5.51477e-06
-1.05684e-05
-1.57585e-05
-2.07679e-05
-2.5215e-05
-2.87076e-05
-3.09205e-05
-3.16769e-05
-3.10021e-05
-2.91196e-05
-2.63865e-05
-2.31956e-05
-1.98887e-05
-1.67123e-05
-1.38157e-05
-1.12717e-05
-9.10051e-06
-7.28885e-06
-5.8039e-06
-4.60366e-06
-3.64409e-06
-2.88345e-06
-2.28435e-06
-1.81462e-06
-1.4474e-06
-1.16077e-06
-9.37195e-07
-7.62733e-07
-6.26326e-07
-5.19249e-07
-4.34715e-07
-3.67551e-07
-3.13875e-07
-2.7074e-07
-2.35834e-07
-2.07281e-07
-1.83561e-07
-1.63502e-07
-1.46273e-07
-1.31325e-07
-1.18287e-07
-1.06865e-07
-9.67675e-08
-8.76964e-08
-7.93709e-08
-7.15725e-08
-6.41706e-08
-5.71188e-08
-5.04243e-08
-4.41058e-08
-3.81576e-08
-3.25322e-08
-2.71424e-08
-2.18792e-08
-1.66399e-08
-1.12891e-08
-6.51046e-09
2.2038e-05
2.20308e-05
2.20121e-05
2.19812e-05
2.19365e-05
2.18745e-05
2.17903e-05
2.16771e-05
2.15262e-05
2.13262e-05
2.10618e-05
2.07137e-05
2.02572e-05
1.96609e-05
1.88859e-05
1.78848e-05
1.66017e-05
1.49721e-05
1.2926e-05
1.03925e-05
7.3085e-06
3.63162e-06
-6.42011e-07
-5.45628e-06
-1.06732e-05
-1.60571e-05
-2.12738e-05
-2.59161e-05
-2.95609e-05
-3.18546e-05
-3.26038e-05
-3.18361e-05
-2.9797e-05
-2.68766e-05
-2.34999e-05
-2.00312e-05
-1.6727e-05
-1.37379e-05
-1.11326e-05
-8.92579e-06
-7.09825e-06
-5.61164e-06
-4.41928e-06
-3.47343e-06
-2.72959e-06
-2.14844e-06
-1.69648e-06
-1.34602e-06
-1.0747e-06
-8.64793e-07
-7.02305e-07
-5.76229e-07
-4.77941e-07
-4.00794e-07
-3.39792e-07
-2.91233e-07
-2.52339e-07
-2.20936e-07
-1.95252e-07
-1.73854e-07
-1.55655e-07
-1.3991e-07
-1.26153e-07
-1.14085e-07
-1.03462e-07
-9.40242e-08
-8.54854e-08
-7.75758e-08
-7.00906e-08
-6.29199e-08
-5.60432e-08
-4.94923e-08
-4.33053e-08
-3.7486e-08
-3.19879e-08
-2.67181e-08
-2.15596e-08
-1.64035e-08
-1.11147e-08
-6.3892e-09
2.20625e-05
2.20562e-05
2.20398e-05
2.20127e-05
2.19732e-05
2.19179e-05
2.18422e-05
2.17394e-05
2.16012e-05
2.14161e-05
2.11692e-05
2.08413e-05
2.04075e-05
1.9836e-05
1.90875e-05
1.81132e-05
1.68554e-05
1.52469e-05
1.32141e-05
1.06814e-05
7.5799e-06
3.86117e-06
-4.84356e-07
-5.40433e-06
-1.07606e-05
-1.6311e-05
-2.17071e-05
-2.65192e-05
-3.02971e-05
-3.26617e-05
-3.34045e-05
-3.2555e-05
-3.03783e-05
-2.72943e-05
-2.37566e-05
-2.0149e-05
-1.67364e-05
-1.36694e-05
-1.10132e-05
-8.77731e-06
-6.93728e-06
-5.45004e-06
-4.2649e-06
-3.33101e-06
-2.60158e-06
-2.03566e-06
-1.59869e-06
-1.2623e-06
-1.0038e-06
-8.05293e-07
-6.52776e-07
-5.35287e-07
-4.44288e-07
-3.73256e-07
-3.17343e-07
-2.73007e-07
-2.37614e-07
-2.09102e-07
-1.85783e-07
-1.66296e-07
-1.49621e-07
-1.35087e-07
-1.22301e-07
-1.11025e-07
-1.01057e-07
-9.2158e-08
-8.40534e-08
-7.64787e-08
-6.92397e-08
-6.22447e-08
-5.54964e-08
-4.90498e-08
-4.29601e-08
-3.72403e-08
-3.18435e-08
-2.66706e-08
-2.15959e-08
-1.65021e-08
-1.12464e-08
-6.50961e-09
2.20805e-05
2.2075e-05
2.20603e-05
2.20361e-05
2.20005e-05
2.19504e-05
2.18811e-05
2.17864e-05
2.16578e-05
2.14843e-05
2.12509e-05
2.09386e-05
2.05223e-05
1.99701e-05
1.92421e-05
1.82888e-05
1.70508e-05
1.54591e-05
1.34371e-05
1.09054e-05
7.79072e-06
4.03972e-06
-3.61841e-07
-5.36482e-06
-1.08312e-05
-1.65139e-05
-2.20533e-05
-2.70017e-05
-3.0887e-05
-3.33088e-05
-3.40461e-05
-3.31303e-05
-3.08422e-05
-2.76263e-05
-2.39599e-05
-2.02419e-05
-1.67439e-05
-1.36161e-05
-1.09205e-05
-8.66228e-06
-6.81292e-06
-5.32551e-06
-4.14622e-06
-3.22177e-06
-2.50359e-06
-1.9495e-06
-1.52411e-06
-1.19857e-06
-9.49903e-07
-7.60128e-07
-6.15232e-07
-5.04288e-07
-4.18828e-07
-3.52427e-07
-3.00356e-07
-2.592e-07
-2.26439e-07
-2.00096e-07
-1.78549e-07
-1.60485e-07
-1.44938e-07
-1.31294e-07
-1.19217e-07
-1.08519e-07
-9.90302e-08
-9.05282e-08
-8.27423e-08
-7.54107e-08
-6.83465e-08
-6.14721e-08
-5.48097e-08
-4.84339e-08
-4.24149e-08
-3.67727e-08
-3.14598e-08
-2.63709e-08
-2.13716e-08
-1.63374e-08
-1.11238e-08
-6.41989e-09
2.20916e-05
2.20864e-05
2.2073e-05
2.20506e-05
2.20177e-05
2.1971e-05
2.19061e-05
2.18167e-05
2.16946e-05
2.15288e-05
2.13045e-05
2.10026e-05
2.0598e-05
2.00589e-05
1.93447e-05
1.84056e-05
1.7181e-05
1.56006e-05
1.35859e-05
1.10548e-05
7.93101e-06
4.15773e-06
-2.82579e-07
-5.34309e-06
-1.0886e-05
-1.6661e-05
-2.23005e-05
-2.73446e-05
-3.13053e-05
-3.37673e-05
-3.45007e-05
-3.35377e-05
-3.11708e-05
-2.7862e-05
-2.41052e-05
-2.03104e-05
-1.67531e-05
-1.35833e-05
-1.08605e-05
-8.58694e-06
-6.7311e-06
-5.24349e-06
-4.06808e-06
-3.14993e-06
-2.43928e-06
-1.89309e-06
-1.47543e-06
-1.15711e-06
-9.14977e-07
-7.30996e-07
-5.91146e-07
-4.84528e-07
-4.02718e-07
-3.39356e-07
-2.89797e-07
-2.50714e-07
-2.19664e-07
-1.9473e-07
-1.74329e-07
-1.57179e-07
-1.42349e-07
-1.29262e-07
-1.17625e-07
-1.07282e-07
-9.80882e-08
-8.98298e-08
-8.22373e-08
-7.50484e-08
-6.80797e-08
-6.12633e-08
-5.46358e-08
-4.8287e-08
-4.22986e-08
-3.66962e-08
-3.14315e-08
-2.63934e-08
-2.144e-08
-1.64389e-08
-1.12385e-08
-6.5153e-09
2.20952e-05
2.20903e-05
2.20774e-05
2.2056e-05
2.20243e-05
2.19792e-05
2.19163e-05
2.18294e-05
2.17104e-05
2.15482e-05
2.13282e-05
2.10312e-05
2.06323e-05
2.00993e-05
1.93918e-05
1.84593e-05
1.7241e-05
1.56658e-05
1.36541e-05
1.11227e-05
7.99364e-06
4.2083e-06
-2.52492e-07
-5.34312e-06
-1.09259e-05
-1.67488e-05
-2.24404e-05
-2.75341e-05
-3.15338e-05
-3.40165e-05
-3.47474e-05
-3.37594e-05
-3.13511e-05
-2.79937e-05
-2.41898e-05
-2.03549e-05
-1.67667e-05
-1.35748e-05
-1.08376e-05
-8.55563e-06
-6.69593e-06
-5.20765e-06
-4.03368e-06
-3.11823e-06
-2.41091e-06
-1.86829e-06
-1.45413e-06
-1.13908e-06
-8.99914e-07
-7.18552e-07
-5.80976e-07
-4.76294e-07
-3.96103e-07
-3.34071e-07
-2.85594e-07
-2.47391e-07
-2.1706e-07
-1.9271e-07
-1.72776e-07
-1.55988e-07
-1.41429e-07
-1.28542e-07
-1.17052e-07
-1.06827e-07
-9.773e-08
-8.95522e-08
-8.20221e-08
-7.48741e-08
-6.79245e-08
-6.11101e-08
-5.44753e-08
-4.81192e-08
-4.21311e-08
-3.65402e-08
-3.12971e-08
-2.62869e-08
-2.13614e-08
-1.63828e-08
-1.11963e-08
-6.48038e-09
2.20914e-05
2.20864e-05
2.20735e-05
2.20518e-05
2.20199e-05
2.19746e-05
2.19113e-05
2.1824e-05
2.17046e-05
2.15418e-05
2.13212e-05
2.10236e-05
2.06239e-05
2.009e-05
1.93815e-05
1.84479e-05
1.72284e-05
1.56519e-05
1.36387e-05
1.11057e-05
7.97502e-06
4.18797e-06
-2.7456e-07
-5.36688e-06
-1.09512e-05
-1.67756e-05
-2.24682e-05
-2.75626e-05
-3.15625e-05
-3.40449e-05
-3.4775e-05
-3.37859e-05
-3.13762e-05
-2.80173e-05
-2.42119e-05
-2.03756e-05
-1.6786e-05
-1.35927e-05
-1.0854e-05
-8.57063e-06
-6.70956e-06
-5.21997e-06
-4.04476e-06
-3.12816e-06
-2.41979e-06
-1.8762e-06
-1.46117e-06
-1.14532e-06
-9.05439e-07
-7.23437e-07
-5.85293e-07
-4.80105e-07
-3.9946e-07
-3.37021e-07
-2.88178e-07
-2.49649e-07
-2.19032e-07
-1.94433e-07
-1.74281e-07
-1.57299e-07
-1.42563e-07
-1.29516e-07
-1.17884e-07
-1.07534e-07
-9.8333e-08
-9.00684e-08
-8.24642e-08
-7.52501e-08
-6.82384e-08
-6.13645e-08
-5.46742e-08
-4.82693e-08
-4.22421e-08
-3.66232e-08
-3.1363e-08
-2.6344e-08
-2.14144e-08
-1.6432e-08
-1.12381e-08
-6.50725e-09
2.208e-05
2.20748e-05
2.20611e-05
2.20382e-05
2.20047e-05
2.19572e-05
2.18913e-05
2.18007e-05
2.16772e-05
2.15098e-05
2.12837e-05
2.09797e-05
2.05728e-05
2.0031e-05
1.93139e-05
1.83714e-05
1.71433e-05
1.55589e-05
1.35398e-05
1.10041e-05
7.87539e-06
4.09702e-06
-3.48438e-07
-5.41399e-06
-1.09616e-05
-1.67407e-05
-2.23835e-05
-2.74296e-05
-3.13909e-05
-3.3852e-05
-3.4583e-05
-3.36165e-05
-3.12455e-05
-2.79324e-05
-2.41713e-05
-2.03723e-05
-1.68108e-05
-1.36367e-05
-1.09095e-05
-8.63174e-06
-6.7718e-06
-5.28027e-06
-4.10118e-06
-3.17962e-06
-2.46581e-06
-1.91675e-06
-1.49646e-06
-1.17575e-06
-9.31473e-07
-7.45572e-07
-6.04013e-07
-4.95873e-07
-4.12699e-07
-3.48109e-07
-2.97445e-07
-2.57379e-07
-2.25465e-07
-1.99778e-07
-1.78716e-07
-1.60978e-07
-1.45615e-07
-1.32046e-07
-1.19979e-07
-1.09264e-07
-9.97567e-08
-9.12377e-08
-8.34243e-08
-7.60389e-08
-6.88869e-08
-6.18964e-08
-5.51074e-08
-4.86177e-08
-4.25174e-08
-3.68367e-08
-3.15259e-08
-2.64668e-08
-2.15064e-08
-1.65005e-08
-1.12871e-08
-6.53626e-09
2.20614e-05
2.20556e-05
2.20405e-05
2.20155e-05
2.19789e-05
2.19274e-05
2.18565e-05
2.17599e-05
2.1629e-05
2.14528e-05
2.12165e-05
2.09007e-05
2.04804e-05
1.99239e-05
1.9191e-05
1.82323e-05
1.69883e-05
1.539e-05
1.33609e-05
1.08215e-05
7.69885e-06
3.93951e-06
-4.70475e-07
-5.48169e-06
-1.09557e-05
-1.66452e-05
-2.21897e-05
-2.71415e-05
-3.10276e-05
-3.34479e-05
-3.41814e-05
-3.32599e-05
-3.09652e-05
-2.77423e-05
-2.40689e-05
-2.0344e-05
-1.6839e-05
-1.37042e-05
-1.10015e-05
-8.7363e-06
-6.88019e-06
-5.38634e-06
-4.20099e-06
-3.2709e-06
-2.54753e-06
-1.98869e-06
-1.55897e-06
-1.22949e-06
-9.77279e-07
-7.84331e-07
-6.36609e-07
-5.23148e-07
-4.35434e-07
-3.67003e-07
-3.13108e-07
-2.70328e-07
-2.36138e-07
-2.08548e-07
-1.85907e-07
-1.66868e-07
-1.50441e-07
-1.36e-07
-1.23213e-07
-1.11898e-07
-1.01889e-07
-9.29531e-08
-8.47981e-08
-7.71385e-08
-6.97691e-08
-6.26055e-08
-5.56749e-08
-4.90647e-08
-4.28581e-08
-3.70823e-08
-3.16876e-08
-2.65573e-08
-2.15397e-08
-1.64907e-08
-1.12486e-08
-6.48922e-09
2.20359e-05
2.20293e-05
2.20122e-05
2.1984e-05
2.19431e-05
2.1886e-05
2.18079e-05
2.17025e-05
2.15611e-05
2.13724e-05
2.11213e-05
2.07886e-05
2.03494e-05
1.97719e-05
1.90165e-05
1.80348e-05
1.67687e-05
1.51512e-05
1.31087e-05
1.05655e-05
7.45298e-06
3.72287e-06
-6.34131e-07
-5.56529e-06
-1.0932e-05
-1.64914e-05
-2.18945e-05
-2.6711e-05
-3.04902e-05
-3.28527e-05
-3.35903e-05
-3.27333e-05
-3.05476e-05
-2.74541e-05
-2.39069e-05
-2.02898e-05
-1.68676e-05
-1.3791e-05
-1.11251e-05
-8.8796e-06
-7.03031e-06
-5.53423e-06
-4.34076e-06
-3.39911e-06
-2.66251e-06
-2.09003e-06
-1.64707e-06
-1.30525e-06
-1.04183e-06
-8.38925e-07
-6.82486e-07
-5.61499e-07
-4.67366e-07
-3.93515e-07
-3.35066e-07
-2.8847e-07
-2.51085e-07
-2.20831e-07
-1.95983e-07
-1.75135e-07
-1.57233e-07
-1.41591e-07
-1.27817e-07
-1.15683e-07
-1.04988e-07
-9.54806e-08
-8.68587e-08
-7.88262e-08
-7.11645e-08
-6.37719e-08
-5.66568e-08
-4.98901e-08
-4.35436e-08
-3.76394e-08
-3.21278e-08
-2.68948e-08
-2.17918e-08
-1.66759e-08
-1.13825e-08
-6.57727e-09
2.20041e-05
2.19965e-05
2.19769e-05
2.19446e-05
2.18981e-05
2.18338e-05
2.17467e-05
2.16301e-05
2.14752e-05
2.12705e-05
2.10008e-05
2.06467e-05
2.01833e-05
1.95793e-05
1.87958e-05
1.77853e-05
1.64917e-05
1.48508e-05
1.27924e-05
1.02459e-05
7.14814e-06
3.4571e-06
-8.30766e-07
-5.65886e-06
-1.08886e-05
-1.62836e-05
-2.15088e-05
-2.61564e-05
-2.98028e-05
-3.20939e-05
-3.28368e-05
-3.206e-05
-3.00099e-05
-2.70777e-05
-2.36892e-05
-2.02086e-05
-1.68926e-05
-1.38913e-05
-1.12739e-05
-9.0551e-06
-7.21596e-06
-5.71826e-06
-4.51543e-06
-3.55981e-06
-2.80695e-06
-2.21752e-06
-1.758e-06
-1.40066e-06
-1.12313e-06
-9.07637e-07
-7.40169e-07
-6.0965e-07
-5.07383e-07
-4.26656e-07
-3.62435e-07
-3.11002e-07
-2.69573e-07
-2.35947e-07
-2.08311e-07
-1.85178e-07
-1.65418e-07
-1.48266e-07
-1.33254e-07
-1.20093e-07
-1.08541e-07
-9.83218e-08
-8.91176e-08
-8.06213e-08
-7.25981e-08
-6.49253e-08
-5.75872e-08
-5.06335e-08
-4.41206e-08
-3.80633e-08
-3.24113e-08
-2.70545e-08
-2.18486e-08
-1.66545e-08
-1.13102e-08
-6.4929e-09
2.19667e-05
2.19579e-05
2.19353e-05
2.18982e-05
2.18451e-05
2.17722e-05
2.16743e-05
2.15444e-05
2.13735e-05
2.11499e-05
2.08581e-05
2.04787e-05
1.99869e-05
1.93518e-05
1.85352e-05
1.74914e-05
1.61663e-05
1.44988e-05
1.24234e-05
9.87477e-06
6.79663e-06
3.15388e-06
-1.05057e-06
-5.75603e-06
-1.08245e-05
-1.60274e-05
-2.10467e-05
-2.54999e-05
-2.89942e-05
-3.12042e-05
-3.19534e-05
-3.12681e-05
-2.93729e-05
-2.66262e-05
-2.34214e-05
-2.01005e-05
-1.69099e-05
-1.3999e-05
-1.14407e-05
-9.25533e-06
-7.42993e-06
-5.93182e-06
-4.71914e-06
-3.74795e-06
-2.97655e-06
-2.36755e-06
-1.88878e-06
-1.51331e-06
-1.21923e-06
-9.8895e-07
-8.08492e-07
-6.6673e-07
-5.54855e-07
-4.66005e-07
-3.94959e-07
-3.37813e-07
-2.9161e-07
-2.54008e-07
-2.23085e-07
-1.97261e-07
-1.75314e-07
-1.56386e-07
-1.39922e-07
-1.25561e-07
-1.13008e-07
-1.01957e-07
-9.20724e-08
-8.30333e-08
-7.45867e-08
-6.65854e-08
-5.89866e-08
-5.18146e-08
-4.51076e-08
-3.88712e-08
-3.30538e-08
-2.7549e-08
-2.2218e-08
-1.69245e-08
-1.15034e-08
-6.61896e-09
2.19246e-05
2.19145e-05
2.18884e-05
2.18459e-05
2.17853e-05
2.17026e-05
2.15925e-05
2.14476e-05
2.12587e-05
2.10136e-05
2.06969e-05
2.02891e-05
1.97655e-05
1.90957e-05
1.82426e-05
1.7162e-05
1.58025e-05
1.41068e-05
1.20141e-05
9.46545e-06
6.41176e-06
2.82555e-06
-1.2835e-06
-5.85076e-06
-1.07396e-05
-1.57305e-05
-2.05242e-05
-2.4766e-05
-2.8096e-05
-3.02187e-05
-3.09748e-05
-3.03877e-05
-2.86596e-05
-2.6114e-05
-2.31103e-05
-1.99661e-05
-1.69162e-05
-1.4108e-05
-1.16179e-05
-9.47219e-06
-7.66423e-06
-6.16741e-06
-4.94508e-06
-3.95747e-06
-3.16601e-06
-2.53558e-06
-2.03552e-06
-1.63989e-06
-1.32731e-06
-1.08045e-06
-8.85394e-07
-7.30969e-07
-6.08254e-07
-5.10221e-07
-4.31455e-07
-3.67843e-07
-3.16235e-07
-2.74135e-07
-2.39491e-07
-2.10617e-07
-1.8619e-07
-1.65247e-07
-1.47138e-07
-1.31419e-07
-1.17737e-07
-1.05748e-07
-9.50966e-08
-8.54441e-08
-7.65177e-08
-6.81439e-08
-6.02505e-08
-5.28339e-08
-4.59119e-08
-3.94788e-08
-3.3481e-08
-2.78156e-08
-2.23492e-08
-1.69498e-08
-1.14558e-08
-6.54309e-09
2.18787e-05
2.18672e-05
2.18374e-05
2.17889e-05
2.17201e-05
2.16268e-05
2.15033e-05
2.1342e-05
2.11335e-05
2.08652e-05
2.05216e-05
2.0083e-05
1.95252e-05
1.88182e-05
1.79261e-05
1.68067e-05
1.54113e-05
1.36868e-05
1.15776e-05
9.03151e-06
6.00694e-06
2.48428e-06
-1.52009e-06
-5.93797e-06
-1.06348e-05
-1.54014e-05
-1.99584e-05
-2.39802e-05
-2.71401e-05
-2.91728e-05
-2.99358e-05
-2.94498e-05
-2.78939e-05
-2.55573e-05
-2.27645e-05
-1.98079e-05
-1.69091e-05
-1.42128e-05
-1.17983e-05
-9.69777e-06
-7.9109e-06
-6.41745e-06
-5.18631e-06
-4.1822e-06
-3.36997e-06
-2.71701e-06
-2.19435e-06
-1.77717e-06
-1.44473e-06
-1.18e-06
-9.69169e-07
-8.01031e-07
-6.66553e-07
-5.58543e-07
-4.7138e-07
-4.00733e-07
-3.43249e-07
-2.96258e-07
-2.5757e-07
-2.25379e-07
-1.98253e-07
-1.7512e-07
-1.55226e-07
-1.38037e-07
-1.23136e-07
-1.10138e-07
-9.866e-08
-8.8345e-08
-7.88981e-08
-7.01189e-08
-6.19044e-08
-5.42224e-08
-4.70685e-08
-4.04246e-08
-3.42334e-08
-2.8395e-08
-2.27803e-08
-1.72611e-08
-1.16723e-08
-6.67766e-09
2.18303e-05
2.18172e-05
2.17834e-05
2.17285e-05
2.1651e-05
2.15465e-05
2.14089e-05
2.12304e-05
2.10011e-05
2.07084e-05
2.03365e-05
1.98658e-05
1.92722e-05
1.85267e-05
1.75944e-05
1.64353e-05
1.50038e-05
1.3251e-05
1.1127e-05
8.58626e-06
5.59499e-06
2.14129e-06
-1.75206e-06
-6.01387e-06
-1.05125e-05
-1.50497e-05
-1.93669e-05
-2.31673e-05
-2.61571e-05
-2.81e-05
-2.88697e-05
-2.84838e-05
-2.70996e-05
-2.49726e-05
-2.23935e-05
-1.96291e-05
-1.68874e-05
-1.4309e-05
-1.19756e-05
-9.92463e-06
-8.16217e-06
-6.67434e-06
-5.4357e-06
-4.41566e-06
-3.58268e-06
-2.90679e-06
-2.3609e-06
-1.92141e-06
-1.56828e-06
-1.28488e-06
-1.05751e-06
-8.74949e-07
-7.28076e-07
-6.0953e-07
-5.13488e-07
-4.35397e-07
-3.71692e-07
-3.19521e-07
-2.76544e-07
-2.40833e-07
-2.10836e-07
-1.85372e-07
-1.63578e-07
-1.4483e-07
-1.28639e-07
-1.14571e-07
-1.02217e-07