/*--------------------------------*- C++ -*----------------------------------*\
| =========                 |                                                 |
| \\      /  F ield         | OpenFOAM: The Open Source CFD Toolbox           |
|  \\    /   O peration     | Version:  2512                                  |
|   \\  /    A nd           | Website:  www.openfoam.com                      |
|    \\/     M anipulation  |                                                 |
\*---------------------------------------------------------------------------*/
FoamFile
{
    version     2.0;
    format      ascii;
    arch        "LSB;label=32;scalar=64";
    class       volScalarField;
    location    "100";
    object      omega;
}
// * * * * * * * * * * * * * * * * * * * * * * * * * * * * * * * * * * * * * //

dimensions      [0 0 -1 0 0 0 0];

internalField   nonuniform List<scalar> 
240106
(
8.07067
6.69608
5.69885
4.94658
4.36122
3.89414
3.51361
3.19816
2.93275
2.7066
2.51176
2.34227
2.19358
2.06213
1.94515
1.84041
1.7461
1.66078
1.58322
1.51244
1.44759
1.38796
1.33296
1.28208
1.23487
1.19095
1.15
1.11173
1.07589
1.04224
1.01061
0.980815
0.952701
0.926132
0.900984
0.877148
0.854524
0.833023
0.812565
0.793074
0.774486
0.756739
0.739778
0.723552
0.708015
0.693124
0.678839
0.665126
0.65195
0.639281
0.62709
0.61535
0.604038
0.593131
0.582607
0.572447
0.562631
0.553144
0.543969
0.53509
0.526495
0.518169
0.5101
0.502276
0.494687
0.487322
0.480172
0.473227
0.466478
0.459918
0.453538
0.447332
0.441292
0.435412
0.429686
0.424107
0.41867
0.41337
0.408203
0.403236
8.07067
6.69608
5.69885
4.94658
4.36122
3.89414
3.51361
3.19816
2.93275
2.7066
2.51176
2.34227
2.19358
2.06213
1.94515
1.84041
1.7461
1.66078
1.58322
1.51244
1.44759
1.38796
1.33296
1.28208
1.23487
1.19095
1.15
1.11173
1.07589
1.04224
1.01061
0.980817
0.952702
0.926133
0.900985
0.877149
0.854525
0.833025
0.812566
0.793076
0.774487
0.756741
0.739779
0.723553
0.708016
0.693125
0.678841
0.665127
0.651951
0.639282
0.627091
0.615351
0.604039
0.593132
0.582608
0.572447
0.562632
0.553145
0.543969
0.535091
0.526495
0.518169
0.5101
0.502277
0.494688
0.487323
0.480172
0.473227
0.466479
0.459918
0.453539
0.447333
0.441293
0.435413
0.429686
0.424107
0.41867
0.41337
0.408203
0.403237
8.07067
6.69608
5.69885
4.94658
4.36122
3.89414
3.51361
3.19816
2.93275
2.7066
2.51176
2.34227
2.19358
2.06213
1.94515
1.84041
1.7461
1.66078
1.58322
1.51244
1.44759
1.38796
1.33296
1.28208
1.23487
1.19095
1.15
1.11173
1.07589
1.04225
1.01061
0.980818
0.952704
0.926135
0.900987
0.877151
0.854527
0.833026
0.812568
0.793077
0.774489
0.756742
0.739781
0.723555
0.708018
0.693126
0.678842
0.665129
0.651952
0.639283
0.627092
0.615353
0.604041
0.593133
0.582609
0.572449
0.562633
0.553146
0.543971
0.535092
0.526496
0.51817
0.510101
0.502278
0.494689
0.487324
0.480173
0.473228
0.466479
0.459919
0.45354
0.447333
0.441293
0.435413
0.429687
0.424108
0.418671
0.413371
0.408204
0.403237
8.07067
6.69608
5.69885
4.94658
4.36122
3.89414
3.51361
3.19816
2.93275
2.7066
2.51176
2.34227
2.19358
2.06213
1.94515
1.84041
1.7461
1.66078
1.58322
1.51244
1.44759
1.38796
1.33296
1.28208
1.23487
1.19095
1.15001
1.11173
1.07589
1.04225
1.01062
0.98082
0.952706
0.926136
0.900989
0.877153
0.854529
0.833029
0.81257
0.79308
0.774491
0.756744
0.739783
0.723557
0.70802
0.693128
0.678844
0.66513
0.651954
0.639285
0.627094
0.615354
0.604042
0.593135
0.58261
0.57245
0.562635
0.553147
0.543972
0.535093
0.526498
0.518171
0.510102
0.502279
0.49469
0.487325
0.480174
0.473229
0.46648
0.45992
0.45354
0.447334
0.441294
0.435414
0.429688
0.424109
0.418672
0.413372
0.408204
0.403238
8.07067
6.69608
5.69885
4.94658
4.36122
3.89414
3.51361
3.19816
2.93275
2.7066
2.51176
2.34227
2.19358
2.06213
1.94515
1.84041
1.7461
1.66078
1.58322
1.51244
1.44759
1.38796
1.33296
1.28208
1.23487
1.19096
1.15001
1.11173
1.07589
1.04225
1.01062
0.980822
0.952708
0.926139
0.900991
0.877155
0.854532
0.833031
0.812572
0.793082
0.774494
0.756746
0.739785
0.723559
0.708022
0.69313
0.678846
0.665132
0.651956
0.639287
0.627095
0.615356
0.604044
0.593136
0.582612
0.572451
0.562636
0.553149
0.543973
0.535095
0.526499
0.518173
0.510104
0.50228
0.494691
0.487326
0.480175
0.47323
0.466482
0.459921
0.453542
0.447335
0.441295
0.435415
0.429688
0.42411
0.418673
0.413373
0.408205
0.403239
8.07067
6.69608
5.69885
4.94658
4.36122
3.89414
3.51361
3.19816
2.93275
2.7066
2.51176
2.34227
2.19358
2.06213
1.94515
1.84041
1.7461
1.66078
1.58322
1.51244
1.44759
1.38796
1.33296
1.28208
1.23487
1.19096
1.15001
1.11174
1.07589
1.04225
1.01062
0.980824
0.95271
0.926141
0.900994
0.877158
0.854534
0.833033
0.812575
0.793084
0.774496
0.756749
0.739788
0.723561
0.708024
0.693133
0.678848
0.665134
0.651958
0.639289
0.627097
0.615358
0.604046
0.593138
0.582614
0.572453
0.562638
0.55315
0.543975
0.535096
0.5265
0.518174
0.510105
0.502281
0.494692
0.487327
0.480177
0.473231
0.466483
0.459922
0.453543
0.447336
0.441296
0.435416
0.42969
0.424111
0.418674
0.413374
0.408206
0.40324
8.07067
6.69608
5.69885
4.94658
4.36122
3.89414
3.51361
3.19816
2.93275
2.7066
2.51176
2.34227
2.19358
2.06213
1.94515
1.8404
1.7461
1.66078
1.58322
1.51244
1.44759
1.38796
1.33296
1.28208
1.23487
1.19096
1.15001
1.11174
1.07589
1.04225
1.01062
0.980826
0.952712
0.926143
0.900996
0.87716
0.854537
0.833036
0.812577
0.793087
0.774499
0.756752
0.73979
0.723564
0.708026
0.693135
0.67885
0.665137
0.65196
0.639291
0.627099
0.61536
0.604048
0.59314
0.582616
0.572455
0.562639
0.553152
0.543977
0.535098
0.526502
0.518176
0.510107
0.502283
0.494694
0.487329
0.480178
0.473233
0.466484
0.459924
0.453544
0.447337
0.441297
0.435417
0.429691
0.424112
0.418675
0.413375
0.408207
0.403241
8.07067
6.69608
5.69885
4.94658
4.36122
3.89414
3.51361
3.19816
2.93275
2.7066
2.51176
2.34227
2.19358
2.06213
1.94515
1.8404
1.7461
1.66078
1.58322
1.51244
1.44759
1.38796
1.33296
1.28208
1.23487
1.19096
1.15001
1.11174
1.07589
1.04225
1.01062
0.980828
0.952715
0.926146
0.900999
0.877163
0.85454
0.833039
0.81258
0.79309
0.774502
0.756754
0.739793
0.723567
0.708029
0.693137
0.678853
0.665139
0.651963
0.639293
0.627102
0.615362
0.60405
0.593142
0.582618
0.572457
0.562641
0.553154
0.543978
0.5351
0.526504
0.518177
0.510108
0.502284
0.494695
0.48733
0.48018
0.473234
0.466485
0.459925
0.453545
0.447339
0.441299
0.435418
0.429692
0.424113
0.418676
0.413376
0.408208
0.403242
8.07067
6.69608
5.69885
4.94658
4.36122
3.89414
3.51361
3.19816
2.93275
2.7066
2.51176
2.34227
2.19358
2.06213
1.94515
1.8404
1.7461
1.66077
1.58322
1.51244
1.44759
1.38796
1.33296
1.28208
1.23487
1.19096
1.15001
1.11174
1.07589
1.04226
1.01063
0.98083
0.952717
0.926149
0.901002
0.877166
0.854543
0.833042
0.812583
0.793093
0.774505
0.756757
0.739796
0.723569
0.708032
0.69314
0.678855
0.665142
0.651965
0.639295
0.627104
0.615364
0.604052
0.593144
0.58262
0.572459
0.562643
0.553156
0.54398
0.535101
0.526505
0.518179
0.51011
0.502286
0.494697
0.487332
0.480181
0.473236
0.466487
0.459926
0.453547
0.44734
0.4413
0.43542
0.429693
0.424114
0.418677
0.413377
0.408209
0.403243
8.07067
6.69608
5.69885
4.94658
4.36122
3.89414
3.51361
3.19816
2.93275
2.7066
2.51176
2.34227
2.19357
2.06213
1.94515
1.8404
1.7461
1.66077
1.58322
1.51244
1.44758
1.38796
1.33296
1.28208
1.23487
1.19096
1.15001
1.11174
1.0759
1.04226
1.01063
0.980833
0.95272
0.926152
0.901005
0.877169
0.854546
0.833045
0.812587
0.793096
0.774508
0.75676
0.739799
0.723572
0.708035
0.693143
0.678858
0.665144
0.651968
0.639298
0.627106
0.615367
0.604054
0.593146
0.582622
0.572461
0.562645
0.553158
0.543982
0.535103
0.526507
0.518181
0.510112
0.502288
0.494698
0.487333
0.480183
0.473237
0.466488
0.459928
0.453548
0.447341
0.441301
0.435421
0.429694
0.424115
0.418678
0.413378
0.408211
0.403244
8.07067
6.69608
5.69885
4.94658
4.36122
3.89414
3.51361
3.19816
2.93275
2.7066
2.51176
2.34227
2.19357
2.06213
1.94515
1.8404
1.7461
1.66077
1.58322
1.51243
1.44758
1.38796
1.33296
1.28208
1.23487
1.19096
1.15001
1.11174
1.0759
1.04226
1.01063
0.980836
0.952723
0.926155
0.901008
0.877173
0.854549
0.833049
0.81259
0.7931
0.774511
0.756764
0.739802
0.723575
0.708038
0.693146
0.678861
0.665147
0.65197
0.6393
0.627109
0.615369
0.604056
0.593149
0.582624
0.572463
0.562647
0.55316
0.543984
0.535105
0.526509
0.518183
0.510113
0.502289
0.4947
0.487335
0.480184
0.473239
0.46649
0.459929
0.453549
0.447343
0.441303
0.435422
0.429696
0.424117
0.41868
0.413379
0.408212
0.403245
8.07067
6.69608
5.69885
4.94658
4.36122
3.89414
3.51361
3.19816
2.93275
2.7066
2.51176
2.34227
2.19357
2.06213
1.94515
1.8404
1.7461
1.66077
1.58322
1.51243
1.44758
1.38796
1.33296
1.28208
1.23487
1.19096
1.15001
1.11174
1.0759
1.04226
1.01063
0.980838
0.952726
0.926158
0.901011
0.877176
0.854553
0.833052
0.812593
0.793103
0.774514
0.756767
0.739805
0.723578
0.70804
0.693149
0.678864
0.66515
0.651973
0.639303
0.627111
0.615371
0.604059
0.593151
0.582626
0.572465
0.562649
0.553162
0.543986
0.535107
0.526511
0.518184
0.510115
0.502291
0.494702
0.487337
0.480186
0.47324
0.466491
0.459931
0.453551
0.447344
0.441304
0.435424
0.429697
0.424118
0.418681
0.413381
0.408213
0.403247
8.07067
6.69608
5.69885
4.94658
4.36122
3.89414
3.51361
3.19816
2.93275
2.7066
2.51176
2.34227
2.19357
2.06213
1.94514
1.8404
1.7461
1.66077
1.58322
1.51243
1.44758
1.38796
1.33296
1.28208
1.23487
1.19096
1.15001
1.11174
1.0759
1.04226
1.01063
0.980841
0.952729
0.926161
0.901015
0.877179
0.854556
0.833056
0.812597
0.793106
0.774517
0.75677
0.739808
0.723581
0.708043
0.693151
0.678866
0.665152
0.651975
0.639305
0.627114
0.615374
0.604061
0.593153
0.582628
0.572467
0.562651
0.553164
0.543988
0.535109
0.526513
0.518186
0.510117
0.502293
0.494703
0.487338
0.480187
0.473242
0.466493
0.459932
0.453552
0.447346
0.441306
0.435425
0.429698
0.424119
0.418682
0.413382
0.408214
0.403248
8.07067
6.69608
5.69885
4.94658
4.36122
3.89414
3.51361
3.19816
2.93275
2.7066
2.51176
2.34227
2.19357
2.06213
1.94514
1.8404
1.7461
1.66077
1.58322
1.51243
1.44758
1.38796
1.33296
1.28208
1.23487
1.19096
1.15001
1.11174
1.0759
1.04227
1.01064
0.980843
0.952732
0.926164
0.901018
0.877183
0.854559
0.833059
0.8126
0.793109
0.774521
0.756773
0.739811
0.723584
0.708046
0.693154
0.678869
0.665155
0.651978
0.639308
0.627116
0.615376
0.604063
0.593155
0.58263
0.572469
0.562653
0.553166
0.54399
0.535111
0.526515
0.518188
0.510118
0.502294
0.494705
0.48734
0.480189
0.473243
0.466494
0.459934
0.453554
0.447347
0.441307
0.435426
0.4297
0.42412
0.418683
0.413383
0.408215
0.403249
8.07067
6.69608
5.69885
4.94658
4.36122
3.89414
3.51361
3.19816
2.93275
2.7066
2.51176
2.34227
2.19357
2.06213
1.94514
1.8404
1.7461
1.66077
1.58321
1.51243
1.44758
1.38796
1.33296
1.28208
1.23487
1.19096
1.15001
1.11175
1.0759
1.04227
1.01064
0.980846
0.952734
0.926167
0.901021
0.877186
0.854562
0.833062
0.812603
0.793112
0.774523
0.756776
0.739814
0.723587
0.708049
0.693157
0.678871
0.665157
0.65198
0.63931
0.627118
0.615378
0.604065
0.593157
0.582632
0.572471
0.562655
0.553167
0.543991
0.535112
0.526516
0.518189
0.51012
0.502296
0.494706
0.487341
0.48019
0.473245
0.466496
0.459935
0.453555
0.447348
0.441308
0.435428
0.429701
0.424122
0.418684
0.413384
0.408216
0.40325
8.07067
6.69608
5.69885
4.94658
4.36122
3.89414
3.51361
3.19816
2.93275
2.7066
2.51176
2.34227
2.19357
2.06213
1.94514
1.8404
1.74609
1.66077
1.58321
1.51243
1.44758
1.38796
1.33296
1.28208
1.23487
1.19096
1.15001
1.11175
1.07591
1.04227
1.01064
0.980848
0.952737
0.926169
0.901023
0.877188
0.854565
0.833064
0.812605
0.793115
0.774526
0.756778
0.739816
0.723589
0.708051
0.693159
0.678874
0.665159
0.651982
0.639312
0.62712
0.61538
0.604067
0.593159
0.582634
0.572473
0.562657
0.553169
0.543993
0.535114
0.526518
0.518191
0.510121
0.502297
0.494708
0.487342
0.480192
0.473246
0.466497
0.459936
0.453556
0.447349
0.441309
0.435429
0.429702
0.424123
0.418685
0.413385
0.408217
0.403251
8.07067
6.69608
5.69885
4.94658
4.36122
3.89414
3.51361
3.19816
2.93275
2.7066
2.51176
2.34227
2.19357
2.06212
1.94514
1.8404
1.74609
1.66077
1.58321
1.51243
1.44758
1.38795
1.33296
1.28208
1.23487
1.19096
1.15001
1.11175
1.07591
1.04227
1.01064
0.98085
0.952739
0.926171
0.901025
0.87719
0.854567
0.833067
0.812608
0.793117
0.774528
0.75678
0.739818
0.723591
0.708053
0.693161
0.678875
0.665161
0.651984
0.639314
0.627122
0.615381
0.604069
0.59316
0.582635
0.572474
0.562658
0.55317
0.543994
0.535115
0.526519
0.518192
0.510123
0.502298
0.494709
0.487344
0.480193
0.473247
0.466498
0.459937
0.453557
0.44735
0.44131
0.43543
0.429703
0.424123
0.418686
0.413386
0.408218
0.403252
8.07067
6.69608
5.69885
4.94658
4.36122
3.89414
3.51361
3.19816
2.93275
2.7066
2.51176
2.34227
2.19357
2.06212
1.94514
1.8404
1.74609
1.66077
1.58321
1.51243
1.44758
1.38795
1.33296
1.28208
1.23487
1.19096
1.15001
1.11175
1.07591
1.04227
1.01064
0.980851
0.95274
0.926173
0.901027
0.877192
0.854569
0.833069
0.81261
0.793119
0.77453
0.756782
0.73982
0.723593
0.708055
0.693162
0.678877
0.665162
0.651985
0.639315
0.627123
0.615383
0.60407
0.593161
0.582637
0.572475
0.562659
0.553171
0.543995
0.535116
0.52652
0.518193
0.510123
0.502299
0.49471
0.487344
0.480193
0.473248
0.466499
0.459938
0.453558
0.447351
0.441311
0.43543
0.429703
0.424124
0.418687
0.413387
0.408219
0.403252
8.07067
6.69608
5.69885
4.94658
4.36122
3.89414
3.51361
3.19816
2.93275
2.7066
2.51176
2.34227
2.19357
2.06212
1.94514
1.8404
1.74609
1.66077
1.58321
1.51243
1.44758
1.38795
1.33296
1.28208
1.23487
1.19096
1.15001
1.11175
1.07591
1.04227
1.01064
0.980852
0.952741
0.926174
0.901028
0.877194
0.85457
0.83307
0.812611
0.79312
0.774531
0.756783
0.739821
0.723594
0.708056
0.693163
0.678878
0.665163
0.651986
0.639316
0.627124
0.615384
0.604071
0.593162
0.582637
0.572476
0.56266
0.553172
0.543996
0.535117
0.52652
0.518194
0.510124
0.5023
0.49471
0.487345
0.480194
0.473248
0.466499
0.459938
0.453558
0.447352
0.441311
0.435431
0.429704
0.424125
0.418687
0.413387
0.408219
0.403253
8.07067
6.69608
5.69885
4.94658
4.36122
3.89414
3.51361
3.19816
2.93275
2.7066
2.51176
2.34227
2.19357
2.06212
1.94514
1.8404
1.74609
1.66077
1.58321
1.51243
1.44758
1.38795
1.33296
1.28208
1.23487
1.19096
1.15001
1.11175
1.07591
1.04227
1.01064
0.980853
0.952742
0.926175
0.901029
0.877194
0.854571
0.833071
0.812611
0.793121
0.774532
0.756784
0.739822
0.723595
0.708056
0.693164
0.678878
0.665164
0.651987
0.639316
0.627124
0.615384
0.604071
0.593163
0.582638
0.572476
0.56266
0.553172
0.543996
0.535117
0.526521
0.518194
0.510124
0.5023
0.494711
0.487345
0.480194
0.473249
0.466499
0.459939
0.453559
0.447352
0.441312
0.435431
0.429704
0.424125
0.418688
0.413387
0.40822
0.403253
8.07067
6.69608
5.69885
4.94658
4.36122
3.89414
3.51361
3.19816
2.93275
2.7066
2.51176
2.34227
2.19357
2.06212
1.94514
1.8404
1.74609
1.66077
1.58321
1.51243
1.44758
1.38795
1.33296
1.28208
1.23487
1.19096
1.15002
1.11175
1.07591
1.04227
1.01064
0.980853
0.952742
0.926175
0.901029
0.877194
0.854571
0.833071
0.812612
0.793121
0.774532
0.756784
0.739822
0.723595
0.708056
0.693164
0.678878
0.665164
0.651987
0.639316
0.627124
0.615384
0.604071
0.593163
0.582638
0.572477
0.56266
0.553172
0.543996
0.535117
0.526521
0.518194
0.510124
0.5023
0.494711
0.487345
0.480194
0.473249
0.466499
0.459939
0.453559
0.447352
0.441312
0.435431
0.429704
0.424125
0.418688
0.413387
0.40822
0.403253
8.07067
6.69608
5.69885
4.94658
4.36122
3.89414
3.51361
3.19816
2.93275
2.7066
2.51176
2.34227
2.19357
2.06212
1.94514
1.8404
1.74609
1.66077
1.58321
1.51243
1.44758
1.38795
1.33296
1.28208
1.23487
1.19096
1.15001
1.11175
1.07591
1.04227
1.01064
0.980852
0.952742
0.926175
0.901029
0.877194
0.854571
0.83307
0.812611
0.79312
0.774531
0.756783
0.739821
0.723594
0.708056
0.693163
0.678878
0.665163
0.651986
0.639316
0.627124
0.615384
0.604071
0.593162
0.582637
0.572476
0.56266
0.553172
0.543996
0.535117
0.526521
0.518194
0.510124
0.5023
0.49471
0.487345
0.480194
0.473248
0.466499
0.459938
0.453558
0.447352
0.441311
0.435431
0.429704
0.424125
0.418687
0.413387
0.408219
0.403253
8.07067
6.69608
5.69885
4.94658
4.36122
3.89414
3.51361
3.19816
2.93275
2.7066
2.51176
2.34227
2.19357
2.06212
1.94514
1.8404
1.74609
1.66077
1.58321
1.51243
1.44758
1.38795
1.33296
1.28208
1.23487
1.19096
1.15001
1.11175
1.07591
1.04227
1.01064
0.980852
0.952741
0.926173
0.901028
0.877193
0.854569
0.833069
0.81261
0.793119
0.77453
0.756782
0.73982
0.723593
0.708055
0.693162
0.678877
0.665162
0.651985
0.639315
0.627123
0.615383
0.60407
0.593162
0.582637
0.572475
0.562659
0.553171
0.543995
0.535116
0.52652
0.518193
0.510124
0.502299
0.49471
0.487344
0.480193
0.473248
0.466499
0.459938
0.453558
0.447351
0.441311
0.43543
0.429703
0.424124
0.418687
0.413387
0.408219
0.403252
8.07067
6.69608
5.69885
4.94658
4.36122
3.89414
3.51361
3.19816
2.93275
2.7066
2.51176
2.34227
2.19357
2.06212
1.94514
1.8404
1.74609
1.66077
1.58321
1.51243
1.44758
1.38796
1.33296
1.28208
1.23487
1.19096
1.15001
1.11175
1.07591
1.04227
1.01064
0.98085
0.952739
0.926172
0.901026
0.877191
0.854568
0.833067
0.812608
0.793117
0.774528
0.756781
0.739819
0.723592
0.708053
0.693161
0.678876
0.665161
0.651984
0.639314
0.627122
0.615382
0.604069
0.59316
0.582636
0.572474
0.562658
0.55317
0.543994
0.535115
0.526519
0.518192
0.510123
0.502299
0.494709
0.487344
0.480193
0.473247
0.466498
0.459937
0.453557
0.44735
0.44131
0.43543
0.429703
0.424123
0.418686
0.413386
0.408218
0.403252
8.07067
6.69608
5.69885
4.94658
4.36122
3.89414
3.51361
3.19816
2.93275
2.7066
2.51176
2.34227
2.19357
2.06213
1.94514
1.8404
1.74609
1.66077
1.58321
1.51243
1.44758
1.38796
1.33296
1.28208
1.23487
1.19096
1.15001
1.11175
1.07591
1.04227
1.01064
0.980848
0.952737
0.92617
0.901024
0.877189
0.854565
0.833065
0.812606
0.793115
0.774526
0.756779
0.739817
0.72359
0.708051
0.693159
0.678874
0.665159
0.651982
0.639312
0.62712
0.61538
0.604067
0.593159
0.582634
0.572473
0.562657
0.553169
0.543993
0.535114
0.526518
0.518191
0.510121
0.502297
0.494708
0.487343
0.480192
0.473246
0.466497
0.459936
0.453556
0.447349
0.441309
0.435429
0.429702
0.424123
0.418685
0.413385
0.408217
0.403251
8.07067
6.69608
5.69885
4.94658
4.36122
3.89414
3.51361
3.19816
2.93275
2.7066
2.51176
2.34227
2.19357
2.06213
1.94514
1.8404
1.7461
1.66077
1.58322
1.51243
1.44758
1.38796
1.33296
1.28208
1.23487
1.19096
1.15001
1.11175
1.0759
1.04227
1.01064
0.980846
0.952735
0.926167
0.901021
0.877186
0.854563
0.833062
0.812603
0.793113
0.774524
0.756776
0.739814
0.723587
0.708049
0.693157
0.678872
0.665157
0.65198
0.63931
0.627118
0.615378
0.604065
0.593157
0.582632
0.572471
0.562655
0.553167
0.543992
0.535112
0.526516
0.51819
0.51012
0.502296
0.494707
0.487341
0.48019
0.473245
0.466496
0.459935
0.453555
0.447348
0.441308
0.435428
0.429701
0.424122
0.418685
0.413384
0.408217
0.40325
8.07067
6.69608
5.69885
4.94658
4.36122
3.89414
3.51361
3.19816
2.93275
2.7066
2.51176
2.34227
2.19357
2.06213
1.94514
1.8404
1.7461
1.66077
1.58322
1.51243
1.44758
1.38796
1.33296
1.28208
1.23487
1.19096
1.15001
1.11175
1.0759
1.04227
1.01064
0.980844
0.952732
0.926165
0.901018
0.877183
0.85456
0.833059
0.8126
0.79311
0.774521
0.756773
0.739811
0.723585
0.708047
0.693154
0.678869
0.665155
0.651978
0.639308
0.627116
0.615376
0.604063
0.593155
0.582631
0.572469
0.562654
0.553166
0.54399
0.535111
0.526515
0.518188
0.510119
0.502295
0.494705
0.48734
0.480189
0.473243
0.466494
0.459934
0.453554
0.447347
0.441307
0.435426
0.4297
0.424121
0.418683
0.413383
0.408215
0.403249
8.07067
6.69608
5.69885
4.94658
4.36122
3.89414
3.51361
3.19816
2.93275
2.7066
2.51176
2.34227
2.19357
2.06213
1.94514
1.8404
1.7461
1.66077
1.58322
1.51243
1.44758
1.38796
1.33296
1.28208
1.23487
1.19096
1.15001
1.11174
1.0759
1.04226
1.01064
0.980842
0.95273
0.926162
0.901015
0.87718
0.854557
0.833056
0.812597
0.793107
0.774518
0.75677
0.739809
0.723582
0.708044
0.693152
0.678867
0.665153
0.651976
0.639306
0.627114
0.615374
0.604061
0.593153
0.582629
0.572468
0.562652
0.553164
0.543988
0.535109
0.526513
0.518186
0.510117
0.502293
0.494704
0.487338
0.480188
0.473242
0.466493
0.459932
0.453552
0.447346
0.441306
0.435425
0.429698
0.424119
0.418682
0.413382
0.408214
0.403248
8.07067
6.69608
5.69885
4.94658
4.36122
3.89414
3.51361
3.19816
2.93275
2.7066
2.51176
2.34227
2.19357
2.06213
1.94515
1.8404
1.7461
1.66077
1.58322
1.51243
1.44758
1.38796
1.33296
1.28208
1.23487
1.19096
1.15001
1.11174
1.0759
1.04226
1.01063
0.980839
0.952727
0.926159
0.901012
0.877177
0.854554
0.833053
0.812594
0.793103
0.774515
0.756767
0.739806
0.723579
0.708041
0.693149
0.678864
0.66515
0.651973
0.639303
0.627112
0.615372
0.604059
0.593151
0.582626
0.572465
0.56265
0.553162
0.543986
0.535107
0.526511
0.518185
0.510115
0.502291
0.494702
0.487337
0.480186
0.47324
0.466491
0.459931
0.453551
0.447344
0.441304
0.435424
0.429697
0.424118
0.418681
0.413381
0.408213
0.403247
8.07067
6.69608
5.69885
4.94658
4.36122
3.89414
3.51361
3.19816
2.93275
2.7066
2.51176
2.34227
2.19357
2.06213
1.94515
1.8404
1.7461
1.66077
1.58322
1.51244
1.44758
1.38796
1.33296
1.28208
1.23487
1.19096
1.15001
1.11174
1.0759
1.04226
1.01063
0.980837
0.952724
0.926156
0.901009
0.877174
0.85455
0.83305
0.812591
0.7931
0.774512
0.756764
0.739803
0.723576
0.708038
0.693146
0.678861
0.665147
0.651971
0.639301
0.627109
0.615369
0.604057
0.593149
0.582624
0.572463
0.562648
0.55316
0.543984
0.535105
0.526509
0.518183
0.510114
0.50229
0.4947
0.487335
0.480184
0.473239
0.46649
0.459929
0.45355
0.447343
0.441303
0.435423
0.429696
0.424117
0.41868
0.413379
0.408212
0.403245
8.07067
6.69608
5.69885
4.94658
4.36122
3.89414
3.51361
3.19816
2.93275
2.7066
2.51176
2.34227
2.19357
2.06213
1.94515
1.8404
1.7461
1.66077
1.58322
1.51244
1.44759
1.38796
1.33296
1.28208
1.23487
1.19096
1.15001
1.11174
1.0759
1.04226
1.01063
0.980834
0.952721
0.926153
0.901006
0.87717
0.854547
0.833046
0.812587
0.793097
0.774508
0.756761
0.739799
0.723573
0.708035
0.693143
0.678859
0.665145
0.651968
0.639298
0.627107
0.615367
0.604055
0.593147
0.582622
0.572461
0.562646
0.553158
0.543982
0.535104
0.526508
0.518181
0.510112
0.502288
0.494699
0.487334
0.480183
0.473237
0.466488
0.459928
0.453548
0.447342
0.441302
0.435421
0.429695
0.424115
0.418678
0.413378
0.408211
0.403244
8.07067
6.69608
5.69885
4.94658
4.36122
3.89414
3.51361
3.19816
2.93275
2.7066
2.51176
2.34227
2.19358
2.06213
1.94515
1.8404
1.7461
1.66078
1.58322
1.51244
1.44759
1.38796
1.33296
1.28208
1.23487
1.19096
1.15001
1.11174
1.0759
1.04226
1.01063
0.980831
0.952718
0.92615
0.901003
0.877167
0.854544
0.833043
0.812584
0.793094
0.774505
0.756758
0.739796
0.72357
0.708032
0.693141
0.678856
0.665142
0.651966
0.639296
0.627104
0.615365
0.604052
0.593144
0.58262
0.572459
0.562644
0.553156
0.54398
0.535102
0.526506
0.518179
0.51011
0.502286
0.494697
0.487332
0.480181
0.473236
0.466487
0.459927
0.453547
0.44734
0.4413
0.43542
0.429693
0.424114
0.418677
0.413377
0.40821
0.403243
8.07067
6.69608
5.69885
4.94658
4.36122
3.89414
3.51361
3.19816
2.93275
2.7066
2.51176
2.34227
2.19358
2.06213
1.94515
1.8404
1.7461
1.66078
1.58322
1.51244
1.44759
1.38796
1.33296
1.28208
1.23487
1.19096
1.15001
1.11174
1.07589
1.04225
1.01062
0.980829
0.952716
0.926147
0.901
0.877164
0.854541
0.83304
0.812581
0.793091
0.774502
0.756755
0.739794
0.723567
0.70803
0.693138
0.678853
0.66514
0.651963
0.639293
0.627102
0.615362
0.60405
0.593142
0.582618
0.572457
0.562642
0.553154
0.543979
0.5351
0.526504
0.518178
0.510108
0.502285
0.494695
0.48733
0.48018
0.473234
0.466486
0.459925
0.453545
0.447339
0.441299
0.435419
0.429692
0.424113
0.418676
0.413376
0.408208
0.403242
8.07067
6.69608
5.69885
4.94658
4.36122
3.89414
3.51361
3.19816
2.93275
2.7066
2.51176
2.34227
2.19358
2.06213
1.94515
1.84041
1.7461
1.66078
1.58322
1.51244
1.44759
1.38796
1.33296
1.28208
1.23487
1.19096
1.15001
1.11174
1.07589
1.04225
1.01062
0.980827
0.952713
0.926144
0.900997
0.877161
0.854538
0.833037
0.812578
0.793088
0.774499
0.756752
0.739791
0.723565
0.708027
0.693136
0.678851
0.665137
0.651961
0.639291
0.6271
0.61536
0.604048
0.59314
0.582616
0.572455
0.56264
0.553152
0.543977
0.535098
0.526502
0.518176
0.510107
0.502283
0.494694
0.487329
0.480178
0.473233
0.466484
0.459924
0.453544
0.447338
0.441298
0.435417
0.429691
0.424112
0.418675
0.413375
0.408207
0.403241
8.07067
6.69608
5.69885
4.94658
4.36122
3.89414
3.51361
3.19816
2.93275
2.7066
2.51176
2.34227
2.19358
2.06213
1.94515
1.84041
1.7461
1.66078
1.58322
1.51244
1.44759
1.38796
1.33296
1.28208
1.23487
1.19096
1.15001
1.11174
1.07589
1.04225
1.01062
0.980825
0.952711
0.926142
0.900995
0.877159
0.854535
0.833034
0.812575
0.793085
0.774497
0.75675
0.739788
0.723562
0.708025
0.693133
0.678849
0.665135
0.651959
0.639289
0.627098
0.615358
0.604046
0.593138
0.582614
0.572454
0.562638
0.553151
0.543975
0.535097
0.526501
0.518174
0.510105
0.502282
0.494693
0.487328
0.480177
0.473232
0.466483
0.459923
0.453543
0.447336
0.441296
0.435416
0.42969
0.424111
0.418674
0.413374
0.408206
0.40324
8.07067
6.69608
5.69885
4.94658
4.36122
3.89414
3.51361
3.19816
2.93275
2.7066
2.51176
2.34227
2.19358
2.06213
1.94515
1.84041
1.7461
1.66078
1.58322
1.51244
1.44759
1.38796
1.33296
1.28208
1.23487
1.19096
1.15001
1.11174
1.07589
1.04225
1.01062
0.980823
0.952709
0.92614
0.900992
0.877156
0.854533
0.833032
0.812573
0.793083
0.774494
0.756747
0.739786
0.72356
0.708022
0.693131
0.678847
0.665133
0.651957
0.639287
0.627096
0.615356
0.604044
0.593137
0.582613
0.572452
0.562637
0.553149
0.543974
0.535095
0.526499
0.518173
0.510104
0.50228
0.494691
0.487326
0.480176
0.47323
0.466482
0.459921
0.453542
0.447335
0.441295
0.435415
0.429689
0.42411
0.418673
0.413373
0.408205
0.403239
8.07067
6.69608
5.69885
4.94658
4.36122
3.89414
3.51361
3.19816
2.93275
2.7066
2.51176
2.34227
2.19358
2.06213
1.94515
1.84041
1.7461
1.66078
1.58322
1.51244
1.44759
1.38796
1.33296
1.28208
1.23487
1.19096
1.15001
1.11173
1.07589
1.04225
1.01062
0.980821
0.952707
0.926138
0.90099
0.877154
0.85453
0.83303
0.812571
0.79308
0.774492
0.756745
0.739784
0.723558
0.70802
0.693129
0.678845
0.665131
0.651955
0.639285
0.627094
0.615355
0.604043
0.593135
0.582611
0.57245
0.562635
0.553148
0.543972
0.535094
0.526498
0.518172
0.510103
0.502279
0.49469
0.487325
0.480175
0.473229
0.466481
0.45992
0.453541
0.447334
0.441294
0.435414
0.429688
0.424109
0.418672
0.413372
0.408205
0.403238
8.07067
6.69608
5.69885
4.94658
4.36122
3.89414
3.51361
3.19816
2.93275
2.7066
2.51176
2.34227
2.19358
2.06213
1.94515
1.84041
1.7461
1.66078
1.58322
1.51244
1.44759
1.38796
1.33296
1.28208
1.23487
1.19095
1.15001
1.11173
1.07589
1.04225
1.01062
0.980819
0.952705
0.926136
0.900988
0.877152
0.854528
0.833028
0.812569
0.793078
0.77449
0.756743
0.739782
0.723556
0.708018
0.693127
0.678843
0.665129
0.651953
0.639284
0.627093
0.615353
0.604041
0.593134
0.58261
0.572449
0.562634
0.553146
0.543971
0.535093
0.526497
0.518171
0.510102
0.502278
0.494689
0.487324
0.480174
0.473228
0.46648
0.459919
0.45354
0.447333
0.441294
0.435413
0.429687
0.424108
0.418671
0.413371
0.408204
0.403237
8.07067
6.69608
5.69885
4.94658
4.36122
3.89414
3.51361
3.19816
2.93275
2.7066
2.51176
2.34228
2.19358
2.06213
1.94515
1.84041
1.7461
1.66078
1.58322
1.51244
1.44759
1.38796
1.33296
1.28208
1.23487
1.19095
1.15
1.11173
1.07589
1.04225
1.01061
0.980818
0.952704
0.926134
0.900986
0.87715
0.854527
0.833026
0.812567
0.793077
0.774488
0.756741
0.73978
0.723554
0.708017
0.693126
0.678841
0.665128
0.651952
0.639282
0.627091
0.615352
0.60404
0.593132
0.582608
0.572448
0.562633
0.553145
0.54397
0.535091
0.526496
0.51817
0.510101
0.502277
0.494688
0.487323
0.480173
0.473228
0.466479
0.459919
0.453539
0.447333
0.441293
0.435413
0.429686
0.424107
0.418671
0.41337
0.408203
0.403237
8.07067
6.69608
5.69885
4.94658
4.36122
3.89414
3.51361
3.19816
2.93275
2.7066
2.51176
2.34228
2.19358
2.06213
1.94515
1.84041
1.7461
1.66078
1.58322
1.51244
1.44759
1.38796
1.33296
1.28208
1.23487
1.19095
1.15
1.11173
1.07589
1.04225
1.01061
0.980817
0.952703
0.926133
0.900985
0.877149
0.854525
0.833025
0.812566
0.793075
0.774487
0.75674
0.739779
0.723553
0.708016
0.693125
0.67884
0.665127
0.651951
0.639281
0.62709
0.615351
0.604039
0.593132
0.582608
0.572447
0.562632
0.553145
0.543969
0.535091
0.526495
0.518169
0.5101
0.502277
0.494688
0.487323
0.480172
0.473227
0.466478
0.459918
0.453539
0.447332
0.441292
0.435412
0.429686
0.424107
0.41867
0.41337
0.408203
0.403237
8.07067
6.69608
5.69885
4.94658
4.36122
3.89414
3.51361
3.19816
2.93275
2.7066
2.51176
2.34227
2.19358
2.06213
1.94515
1.84041
1.7461
1.66078
1.58322
1.51244
1.44759
1.38796
1.33296
1.28208
1.23487
1.19095
1.15
1.11173
1.07589
1.04224
1.01061
0.980817
0.952703
0.926133
0.900985
0.877149
0.854526
0.833025
0.812566
0.793076
0.774488
0.756741
0.739779
0.723553
0.708016
0.693125
0.678841
0.665127
0.651951
0.639282
0.627091
0.615351
0.604039
0.593132
0.582608
0.572447
0.562632
0.553145
0.54397
0.535091
0.526495
0.518169
0.5101
0.502277
0.494688
0.487323
0.480172
0.473227
0.466479
0.459918
0.453539
0.447333
0.441293
0.435413
0.429686
0.424107
0.41867
0.41337
0.408203
0.403237
8.07067
6.69608
5.69885
4.94658
4.36122
3.89414
3.51361
3.19816
2.93275
2.7066
2.51176
2.34227
2.19358
2.06213
1.94515
1.84041
1.7461
1.66078
1.58322
1.51244
1.44759
1.38796
1.33296
1.28208
1.23487
1.19095
1.15
1.11173
1.07589
1.04225
1.01061
0.980818
0.952704
0.926134
0.900987
0.877151
0.854527
0.833026
0.812567
0.793077
0.774489
0.756742
0.739781
0.723555
0.708017
0.693126
0.678842
0.665128
0.651952
0.639283
0.627092
0.615352
0.60404
0.593133
0.582609
0.572448
0.562633
0.553146
0.54397
0.535092
0.526496
0.51817
0.510101
0.502277
0.494688
0.487323
0.480173
0.473228
0.466479
0.459919
0.453539
0.447333
0.441293
0.435413
0.429686
0.424108
0.418671
0.413371
0.408203
0.403237
8.07067
6.69608
5.69885
4.94658
4.36122
3.89414
3.51361
3.19816
2.93275
2.7066
2.51176
2.34227
2.19358
2.06213
1.94515
1.84041
1.7461
1.66078
1.58322
1.51244
1.44759
1.38796
1.33296
1.28208
1.23487
1.19095
1.15001
1.11173
1.07589
1.04225
1.01062
0.98082
0.952706
0.926136
0.900989
0.877153
0.854529
0.833028
0.812569
0.793079
0.774491
0.756744
0.739783
0.723557
0.708019
0.693128
0.678843
0.66513
0.651954
0.639284
0.627093
0.615354
0.604042
0.593134
0.58261
0.572449
0.562634
0.553147
0.543971
0.535093
0.526497
0.518171
0.510102