/*--------------------------------*- C++ -*----------------------------------*\
| =========                 |                                                 |
| \\      /  F ield         | OpenFOAM: The Open Source CFD Toolbox           |
|  \\    /   O peration     | Version:  2512                                  |
|   \\  /    A nd           | Website:  www.openfoam.com                      |
|    \\/     M anipulation  |                                                 |
\*---------------------------------------------------------------------------*/
FoamFile
{
    version     2.0;
    format      ascii;
    arch        "LSB;label=32;scalar=64";
    class       volScalarField;
    location    "100";
    object      p;
}
// * * * * * * * * * * * * * * * * * * * * * * * * * * * * * * * * * * * * * //

dimensions      [0 2 -2 0 0 0 0];

internalField   nonuniform List<scalar> 
240106
(
7.77667e-06
7.77018e-06
7.75319e-06
7.72573e-06
7.6873e-06
7.6363e-06
7.57059e-06
7.48762e-06
7.38427e-06
7.25682e-06
7.1009e-06
6.91152e-06
6.68312e-06
6.40962e-06
6.08469e-06
5.70197e-06
5.25553e-06
4.74044e-06
4.15341e-06
3.49371e-06
2.76417e-06
1.97214e-06
1.1302e-06
2.56612e-07
-6.24796e-07
-1.48547e-06
-2.29393e-06
-3.0185e-06
-3.63059e-06
-4.10768e-06
-4.43629e-06
-4.61357e-06
-4.64736e-06
-4.55448e-06
-4.35794e-06
-4.08366e-06
-3.75745e-06
-3.40275e-06
-3.03926e-06
-2.68239e-06
-2.34328e-06
-2.02926e-06
-1.74449e-06
-1.49064e-06
-1.26753e-06
-1.07376e-06
-9.07123e-07
-7.64983e-07
-6.4454e-07
-5.43015e-07
-4.57785e-07
-3.86455e-07
-3.26891e-07
-2.77225e-07
-2.35832e-07
-2.01314e-07
-1.72486e-07
-1.48353e-07
-1.28103e-07
-1.11074e-07
-9.67334e-08
-8.46447e-08
-7.44416e-08
-6.58109e-08
-5.84798e-08
-5.22139e-08
-4.6813e-08
-4.21098e-08
-3.79636e-08
-3.42555e-08
-3.08797e-08
-2.77399e-08
-2.47454e-08
-2.1812e-08
-1.8861e-08
-1.58216e-08
-1.26324e-08
-9.27299e-09
-5.70056e-09
-2.01829e-09
7.77862e-06
7.77216e-06
7.75535e-06
7.72817e-06
7.69009e-06
7.63956e-06
7.57444e-06
7.49217e-06
7.38965e-06
7.26316e-06
7.10834e-06
6.92018e-06
6.6931e-06
6.42098e-06
6.09742e-06
5.71596e-06
5.27056e-06
4.7561e-06
4.16913e-06
3.50869e-06
2.77744e-06
1.98253e-06
1.13647e-06
2.57548e-07
-6.30185e-07
-1.49777e-06
-2.31316e-06
-3.04398e-06
-3.66087e-06
-4.14079e-06
-4.46993e-06
-4.64547e-06
-4.6756e-06
-4.57773e-06
-4.37556e-06
-4.09564e-06
-3.76428e-06
-3.40521e-06
-3.03828e-06
-2.67888e-06
-2.33808e-06
-2.02308e-06
-1.73788e-06
-1.484e-06
-1.26116e-06
-1.06783e-06
-9.01742e-07
-7.60198e-07
-6.40353e-07
-5.39399e-07
-4.54694e-07
-3.83837e-07
-3.24692e-07
-2.75392e-07
-2.34316e-07
-2.0007e-07
-1.7147e-07
-1.47526e-07
-1.27428e-07
-1.10522e-07
-9.62806e-08
-8.42732e-08
-7.41377e-08
-6.55628e-08
-5.82774e-08
-5.20472e-08
-4.66726e-08
-4.19873e-08
-3.78527e-08
-3.41517e-08
-3.07808e-08
-2.76454e-08
-2.46559e-08
-2.17288e-08
-1.87855e-08
-1.57557e-08
-1.25791e-08
-9.23823e-09
-5.6889e-09
-2.12265e-09
7.78241e-06
7.77607e-06
7.7596e-06
7.73294e-06
7.69557e-06
7.64595e-06
7.58197e-06
7.50108e-06
7.4002e-06
7.27562e-06
7.12296e-06
6.93722e-06
6.71275e-06
6.44337e-06
6.12252e-06
5.74358e-06
5.30025e-06
4.78708e-06
4.20025e-06
3.53842e-06
2.80381e-06
2.00326e-06
1.14907e-06
2.59616e-07
-6.4064e-07
-1.52195e-06
-2.35112e-06
-3.09436e-06
-3.72088e-06
-4.20647e-06
-4.5367e-06
-4.70879e-06
-4.73164e-06
-4.62384e-06
-4.41048e-06
-4.11937e-06
-3.77778e-06
-3.41007e-06
-3.03632e-06
-2.67193e-06
-2.32779e-06
-2.01084e-06
-1.72479e-06
-1.47087e-06
-1.24856e-06
-1.05612e-06
-8.91123e-07
-7.50758e-07
-6.32093e-07
-5.32264e-07
-4.48595e-07
-3.78668e-07
-3.20347e-07
-2.71768e-07
-2.31317e-07
-1.97605e-07
-1.69452e-07
-1.45878e-07
-1.2608e-07
-1.09418e-07
-9.5376e-08
-8.35343e-08
-7.35379e-08
-6.50798e-08
-5.78903e-08
-5.1736e-08
-4.64182e-08
-4.17731e-08
-3.76655e-08
-3.39823e-08
-3.0624e-08
-2.7499e-08
-2.45199e-08
-2.16042e-08
-1.86738e-08
-1.56588e-08
-1.25008e-08
-9.18542e-09
-5.67581e-09
-2.18054e-09
7.78799e-06
7.78184e-06
7.76584e-06
7.73995e-06
7.70363e-06
7.65536e-06
7.59306e-06
7.51421e-06
7.41575e-06
7.29398e-06
7.14454e-06
6.96238e-06
6.74179e-06
6.47647e-06
6.15968e-06
5.78452e-06
5.34429e-06
4.83311e-06
4.24658e-06
3.58275e-06
2.84324e-06
2.03436e-06
1.16813e-06
2.63024e-07
-6.55906e-07
-1.55774e-06
-2.40754e-06
-3.16942e-06
-3.8104e-06
-4.3045e-06
-4.63633e-06
-4.80318e-06
-4.81503e-06
-4.69229e-06
-4.46213e-06
-4.15428e-06
-3.79746e-06
-3.41691e-06
-3.03308e-06
-2.66134e-06
-2.31232e-06
-1.99255e-06
-1.70529e-06
-1.45137e-06
-1.22987e-06
-1.03878e-06
-8.75424e-07
-7.36817e-07
-6.19906e-07
-5.21742e-07
-4.39603e-07
-3.71049e-07
-3.13942e-07
-2.66427e-07
-2.26895e-07
-1.93966e-07
-1.66471e-07
-1.43437e-07
-1.24081e-07
-1.07779e-07
-9.40341e-08
-8.24409e-08
-7.26548e-08
-6.43737e-08
-5.73295e-08
-5.12897e-08
-4.60578e-08
-4.14736e-08
-3.74073e-08
-3.3752e-08
-3.04137e-08
-2.73052e-08
-2.4342e-08
-2.14425e-08
-1.85296e-08
-1.55339e-08
-1.23994e-08
-9.11456e-09
-5.64956e-09
-2.20737e-09
7.79521e-06
7.7893e-06
7.77393e-06
7.74902e-06
7.71406e-06
7.66753e-06
7.60741e-06
7.53122e-06
7.43591e-06
7.31782e-06
7.17257e-06
6.9951e-06
6.77959e-06
6.5196e-06
6.20815e-06
5.83798e-06
5.40191e-06
4.89344e-06
4.30744e-06
3.64114e-06
2.89536e-06
2.07568e-06
1.19374e-06
2.68093e-07
-6.75451e-07
-1.60442e-06
-2.4816e-06
-3.26826e-06
-3.92849e-06
-4.43391e-06
-4.7678e-06
-4.92757e-06
-4.92466e-06
-4.78196e-06
-4.52945e-06
-4.19945e-06
-3.82258e-06
-3.42521e-06
-3.02825e-06
-2.64699e-06
-2.2917e-06
-1.96836e-06
-1.67964e-06
-1.42579e-06
-1.20543e-06
-1.01615e-06
-8.54964e-07
-7.18673e-07
-6.04061e-07
-5.08074e-07
-4.27928e-07
-3.61162e-07
-3.05634e-07
-2.59498e-07
-2.21158e-07
-1.89245e-07
-1.62599e-07
-1.40266e-07
-1.21481e-07
-1.05647e-07
-9.229e-08
-8.10236e-08
-7.15146e-08
-6.34664e-08
-5.6613e-08
-5.0723e-08
-4.56031e-08
-4.10984e-08
-3.70867e-08
-3.3469e-08
-3.01585e-08
-2.70735e-08
-2.41324e-08
-2.12551e-08
-1.83649e-08
-1.53932e-08
-1.22856e-08
-9.03341e-09
-5.61113e-09
-2.20756e-09
7.80389e-06
7.79827e-06
7.78365e-06
7.75994e-06
7.72661e-06
7.6822e-06
7.62471e-06
7.55173e-06
7.46024e-06
7.3466e-06
7.20646e-06
7.03468e-06
6.82537e-06
6.57192e-06
6.26703e-06
5.90304e-06
5.47218e-06
4.9672e-06
4.38205e-06
3.71299e-06
2.95976e-06
2.1271e-06
1.22606e-06
2.75268e-07
-6.98573e-07
-1.66111e-06
-2.57228e-06
-3.38979e-06
-4.07403e-06
-4.59355e-06
-4.92992e-06
-5.08069e-06
-5.0592e-06
-4.89152e-06
-4.61121e-06
-4.25381e-06
-3.85229e-06
-3.43439e-06
-3.02149e-06
-2.62879e-06
-2.26602e-06
-1.93849e-06
-1.64814e-06
-1.39451e-06
-1.17564e-06
-9.8862e-07
-8.30129e-07
-6.96687e-07
-5.84887e-07
-4.91552e-07
-4.13828e-07
-3.49228e-07
-2.95611e-07
-2.51144e-07
-2.14244e-07
-1.83555e-07
-1.57932e-07
-1.3644e-07
-1.18343e-07
-1.03074e-07
-9.01866e-08
-7.93171e-08
-7.01452e-08
-6.23802e-08
-5.57577e-08
-5.00483e-08
-4.50627e-08
-4.06535e-08
-3.6708e-08
-3.3137e-08
-2.98624e-08
-2.68083e-08
-2.38964e-08
-2.1048e-08
-1.81863e-08
-1.5243e-08
-1.21655e-08
-8.94674e-09
-5.5645e-09
-2.1932e-09
7.81382e-06
7.80853e-06
7.79477e-06
7.77242e-06
7.74097e-06
7.69899e-06
7.64454e-06
7.57524e-06
7.48816e-06
7.37967e-06
7.24542e-06
7.08025e-06
6.87817e-06
6.63233e-06
6.33516e-06
5.97847e-06
5.55385e-06
5.05316e-06
4.46931e-06
3.79734e-06
3.03579e-06
2.18826e-06
1.26512e-06
2.84983e-07
-7.24461e-07
-1.72668e-06
-2.67821e-06
-3.53249e-06
-4.2454e-06
-4.78171e-06
-5.12092e-06
-5.26069e-06
-5.21678e-06
-5.01915e-06
-4.70575e-06
-4.31595e-06
-3.88552e-06
-3.4437e-06
-3.01241e-06
-2.60662e-06
-2.23542e-06
-1.90327e-06
-1.61123e-06
-1.35803e-06
-1.14101e-06
-9.56724e-07
-8.01423e-07
-6.71324e-07
-5.62805e-07
-4.72549e-07
-3.97628e-07
-3.35528e-07
-2.84114e-07
-2.41567e-07
-2.06323e-07
-1.77038e-07
-1.52586e-07
-1.32057e-07
-1.14747e-07
-1.00124e-07
-8.77759e-08
-7.73635e-08
-6.85804e-08
-6.11414e-08
-5.47837e-08
-4.92801e-08
-4.4447e-08
-4.01462e-08
-3.62767e-08
-3.27609e-08
-2.953e-08
-2.65146e-08
-2.36397e-08
-2.08271e-08
-1.79999e-08
-1.50897e-08
-1.20446e-08
-8.85959e-09
-5.51447e-09
-2.17213e-09
7.82474e-06
7.81982e-06
7.80701e-06
7.78617e-06
7.75679e-06
7.7175e-06
7.66641e-06
7.60121e-06
7.51902e-06
7.41626e-06
7.28858e-06
7.1308e-06
6.93681e-06
6.69957e-06
6.41113e-06
6.06279e-06
5.64539e-06
5.14983e-06
4.56781e-06
3.89301e-06
3.12252e-06
2.25864e-06
1.31086e-06
2.9768e-07
-7.52178e-07
-1.79974e-06
-2.79765e-06
-3.69435e-06
-4.44042e-06
-4.99613e-06
-5.33842e-06
-5.4652e-06
-5.39506e-06
-5.16265e-06
-4.8111e-06
-4.38429e-06
-3.9211e-06
-3.45245e-06
-3.0007e-06
-2.5805e-06
-2.20017e-06
-1.86315e-06
-1.56949e-06
-1.31699e-06
-1.10221e-06
-9.21093e-07
-7.6944e-07
-6.43128e-07
-5.38302e-07
-4.51494e-07
-3.79699e-07
-3.2038e-07
-2.71412e-07
-2.30996e-07
-1.97585e-07
-1.69854e-07
-1.46694e-07
-1.27225e-07
-1.10779e-07
-9.68677e-08
-8.51157e-08
-7.52097e-08
-6.68577e-08
-5.97795e-08
-5.37136e-08
-4.84354e-08
-4.37684e-08
-3.95858e-08
-3.58e-08
-3.23467e-08
-2.91674e-08
-2.61988e-08
-2.33688e-08
-2.05995e-08
-1.78129e-08
-1.49399e-08
-1.19294e-08
-8.77753e-09
-5.46633e-09
-2.14994e-09
7.83638e-06
7.83185e-06
7.82005e-06
7.80084e-06
7.77368e-06
7.73727e-06
7.68979e-06
7.629e-06
7.55208e-06
7.4555e-06
7.33494e-06
7.18517e-06
7e-06
6.77215e-06
6.49332e-06
6.15425e-06
5.74499e-06
5.25538e-06
4.67581e-06
3.99843e-06
3.2187e-06
2.33743e-06
1.36301e-06
3.13706e-07
-7.80733e-07
-1.87869e-06
-2.92848e-06
-3.87287e-06
-4.6563e-06
-5.2338e-06
-5.57938e-06
-5.69114e-06
-5.59107e-06
-5.31931e-06
-4.92499e-06
-4.45705e-06
-3.9578e-06
-3.4599e-06
-2.9861e-06
-2.55058e-06
-2.16069e-06
-1.81875e-06
-1.52365e-06
-1.27216e-06
-1.06e-06
-8.82475e-07
-7.34875e-07
-6.12732e-07
-5.11941e-07
-4.2888e-07
-3.60467e-07
-3.04148e-07
-2.57814e-07
-2.1969e-07
-1.8825e-07
-1.62184e-07
-1.40405e-07
-1.22065e-07
-1.0654e-07
-9.33872e-08
-8.22726e-08
-7.29099e-08
-6.50209e-08
-5.83292e-08
-5.25741e-08
-4.75342e-08
-4.30416e-08
-3.8983e-08
-3.52865e-08
-3.19019e-08
-2.87814e-08
-2.58679e-08
-2.30911e-08
-2.03724e-08
-1.7632e-08
-1.47999e-08
-1.18251e-08
-8.70493e-09
-5.42372e-09
-2.12927e-09
7.84844e-06
7.84432e-06
7.83358e-06
7.81606e-06
7.79122e-06
7.75781e-06
7.71411e-06
7.65794e-06
7.58654e-06
7.49644e-06
7.38337e-06
7.24208e-06
7.06625e-06
6.84841e-06
6.57989e-06
6.25085e-06
5.85052e-06
5.36763e-06
4.79117e-06
4.11164e-06
3.3227e-06
2.42346e-06
1.42103e-06
3.33258e-07
-8.0912e-07
-1.96172e-06
-3.06816e-06
-4.06488e-06
-4.88945e-06
-5.49091e-06
-5.83986e-06
-5.93467e-06
-5.80124e-06
-5.48599e-06
-5.04482e-06
-4.53229e-06
-3.99438e-06
-3.46545e-06
-2.96853e-06
-2.51717e-06
-2.1176e-06
-1.77087e-06
-1.4746e-06
-1.22448e-06
-1.01531e-06
-8.41726e-07
-6.98515e-07
-5.80839e-07
-4.84341e-07
-4.05243e-07
-3.40392e-07
-2.87223e-07
-2.43651e-07
-2.07928e-07
-1.78548e-07
-1.54218e-07
-1.33875e-07
-1.16705e-07
-1.02133e-07
-8.97674e-08
-7.93164e-08
-7.05217e-08
-6.3117e-08
-5.68283e-08
-5.13948e-08
-4.6599e-08
-4.22835e-08
-3.83507e-08
-3.47461e-08
-3.1435e-08
-2.83803e-08
-2.55301e-08
-2.28149e-08
-2.0154e-08
-1.74653e-08
-1.46768e-08
-1.17377e-08
-8.64654e-09
-5.3902e-09
-2.11209e-09
7.86062e-06
7.85691e-06
7.84725e-06
7.83144e-06
7.80896e-06
7.77862e-06
7.73876e-06
7.68729e-06
7.62153e-06
7.53809e-06
7.43271e-06
7.30014e-06
7.13398e-06
6.92654e-06
6.66881e-06
6.35035e-06
5.95958e-06
5.48408e-06
4.9114e-06
4.23028e-06
3.43246e-06
2.51516e-06
1.48402e-06
3.56305e-07
-8.36387e-07
-2.04685e-06
-3.21372e-06
-4.26661e-06
-5.13548e-06
-5.76269e-06
-6.11501e-06
-6.19111e-06
-6.02131e-06
-5.65907e-06
-5.16778e-06
-4.60806e-06
-4.02967e-06
-3.46864e-06
-2.94812e-06
-2.48081e-06
-2.07173e-06
-1.7205e-06
-1.42341e-06
-1.175e-06
-9.6916e-07
-7.99804e-07
-6.61225e-07
-5.48218e-07
-4.56175e-07
-3.81164e-07
-3.19969e-07
-2.70026e-07
-2.29277e-07
-1.96005e-07
-1.68726e-07
-1.4616e-07
-1.2727e-07
-1.1128e-07
-9.76692e-08
-8.6099e-08
-7.63224e-08
-6.81075e-08
-6.11975e-08
-5.53186e-08
-5.02088e-08
-4.56555e-08
-4.15136e-08
-3.77036e-08
-3.41904e-08
-3.09556e-08
-2.79725e-08
-2.51934e-08
-2.25479e-08
-1.9952e-08
-1.73196e-08
-1.45768e-08
-1.16724e-08
-8.6064e-09
-5.36865e-09
-2.09969e-09
7.87259e-06
7.86929e-06
7.8607e-06
7.84659e-06
7.82645e-06
7.79915e-06
7.76311e-06
7.71632e-06
7.6562e-06
7.5794e-06
7.48172e-06
7.35791e-06
7.20149e-06
7.0046e-06
6.75786e-06
6.45031e-06
6.06951e-06
5.60192e-06
5.03362e-06
4.35155e-06
3.54544e-06
2.61049e-06
1.55068e-06
3.82517e-07
-8.61698e-07
-2.13198e-06
-3.3618e-06
-4.47358e-06
-5.38907e-06
-6.04335e-06
-6.39896e-06
-6.4549e-06
-6.24635e-06
-5.8345e-06
-5.29084e-06
-4.68236e-06
-4.06266e-06
-3.46926e-06
-2.92522e-06
-2.44231e-06
-2.02413e-06
-1.66884e-06
-1.37134e-06
-1.12496e-06
-9.22687e-07
-7.57748e-07
-6.23935e-07
-5.15687e-07
-4.28148e-07
-3.57246e-07
-2.99711e-07
-2.52988e-07
-2.15054e-07
-1.84225e-07
-1.59032e-07
-1.38215e-07
-1.20757e-07
-1.05927e-07
-9.32597e-08
-8.2474e-08
-7.33668e-08
-6.57306e-08
-5.9315e-08
-5.3843e-08
-4.90509e-08
-4.47311e-08
-4.07531e-08
-3.70579e-08
-3.36317e-08
-3.04732e-08
-2.75657e-08
-2.48642e-08
-2.22957e-08
-1.97711e-08
-1.71995e-08
-1.45038e-08
-1.16323e-08
-8.58689e-09
-5.36058e-09
-2.09253e-09
7.88405e-06
7.88115e-06
7.87359e-06
7.86112e-06
7.84324e-06
7.81888e-06
7.78654e-06
7.74429e-06
7.68963e-06
7.6193e-06
7.52913e-06
7.41389e-06
7.26705e-06
7.08057e-06
6.84475e-06
6.54811e-06
6.17743e-06
5.71807e-06
5.15463e-06
4.47227e-06
3.65868e-06
2.70695e-06
1.61928e-06
4.11211e-07
-8.84409e-07
-2.21494e-06
-3.50869e-06
-4.68067e-06
-5.64402e-06
-6.32608e-06
-6.68481e-06
-6.71958e-06
-6.47078e-06
-6.00789e-06
-5.4109e-06
-4.75333e-06
-4.09253e-06
-3.46732e-06
-2.90051e-06
-2.40273e-06
-1.97611e-06
-1.61729e-06
-1.31976e-06
-1.07568e-06
-8.77124e-07
-7.16668e-07
-5.87626e-07
-4.84097e-07
-4.00994e-07
-3.34113e-07
-2.80145e-07
-2.36552e-07
-2.01352e-07
-1.72893e-07
-1.49724e-07
-1.30593e-07
-1.14508e-07
-1.00786e-07
-8.90202e-08
-7.89876e-08
-7.05289e-08
-6.34572e-08
-5.75245e-08
-5.24476e-08
-4.7959e-08
-4.38571e-08
-4.00276e-08
-3.64343e-08
-3.30865e-08
-3.00007e-08
-2.71698e-08
-2.45501e-08
-2.20642e-08
-1.96162e-08
-1.71087e-08
-1.44609e-08
-1.16203e-08
-8.59046e-09
-5.3681e-09
-2.09194e-09
7.8947e-06
7.89217e-06
7.88558e-06
7.87465e-06
7.8589e-06
7.8373e-06
7.80844e-06
7.77047e-06
7.72097e-06
7.65675e-06
7.57371e-06
7.46662e-06
7.32892e-06
7.15242e-06
6.92713e-06
6.64109e-06
6.28036e-06
5.82925e-06
5.27097e-06
4.58894e-06
3.76883e-06
2.80161e-06
1.68763e-06
4.41317e-07
-9.04127e-07
-2.29361e-06
-3.65044e-06
-4.8822e-06
-5.8933e-06
-6.60307e-06
-6.96471e-06
-6.9779e-06
-6.68852e-06
-6.1746e-06
-5.52484e-06
-4.81927e-06
-4.11874e-06
-3.46318e-06
-2.87492e-06
-2.36337e-06
-1.92917e-06
-1.5674e-06
-1.27018e-06
-1.02856e-06
-8.33748e-07
-6.77699e-07
-5.53289e-07
-4.54303e-07
-3.75438e-07
-3.12377e-07
-2.61782e-07
-2.21145e-07
-1.88527e-07
-1.62306e-07
-1.4104e-07
-1.23489e-07
-1.08684e-07
-9.59881e-08
-8.50564e-08
-7.57259e-08
-6.78781e-08
-6.13432e-08
-5.58708e-08
-5.11681e-08
-4.69621e-08
-4.3057e-08
-3.93563e-08
-3.58482e-08
-3.25667e-08
-2.95464e-08
-2.67896e-08
-2.42528e-08
-2.18526e-08
-1.94844e-08
-1.70434e-08
-1.44439e-08
-1.16323e-08
-8.61364e-09
-5.38857e-09
-2.09621e-09
7.90426e-06
7.90207e-06
7.89635e-06
7.88683e-06
7.873e-06
7.85392e-06
7.82823e-06
7.79417e-06
7.74938e-06
7.69075e-06
7.61424e-06
7.51466e-06
7.38538e-06
7.21812e-06
7.00264e-06
6.72656e-06
6.37526e-06
5.93211e-06
5.37905e-06
4.69784e-06
3.87224e-06
2.89118e-06
1.75315e-06
4.7139e-07
-9.20748e-07
-2.36599e-06
-3.78297e-06
-5.07211e-06
-6.12925e-06
-6.86575e-06
-7.23e-06
-7.222e-06
-6.8931e-06
-6.32991e-06
-5.62969e-06
-4.87873e-06
-4.14108e-06
-3.45748e-06
-2.84966e-06
-2.32578e-06
-1.88496e-06
-1.52083e-06
-1.2242e-06
-9.85072e-07
-7.93865e-07
-6.41987e-07
-5.21916e-07
-4.27151e-07
-3.52198e-07
-2.92643e-07
-2.45131e-07
-2.07192e-07
-1.76931e-07
-1.52752e-07
-1.33222e-07
-1.17102e-07
-1.03449e-07
-9.16696e-08
-8.14834e-08
-7.27848e-08
-6.54938e-08
-5.94535e-08
-5.44072e-08
-5.00489e-08
-4.60981e-08
-4.23645e-08
-3.87695e-08
-3.53271e-08
-3.20964e-08
-2.91309e-08
-2.64414e-08
-2.39841e-08
-2.16684e-08
-1.938e-08
-1.70053e-08
-1.44532e-08
-1.16683e-08
-8.65683e-09
-5.42318e-09
-2.10701e-09
7.91247e-06
7.91058e-06
7.90562e-06
7.89732e-06
7.88519e-06
7.8683e-06
7.84539e-06
7.81475e-06
7.77409e-06
7.72037e-06
7.64962e-06
7.55665e-06
7.43484e-06
7.2758e-06
7.06908e-06
6.80193e-06
6.45918e-06
6.02336e-06
5.47525e-06
4.79518e-06
3.96515e-06
2.97218e-06
1.813e-06
4.99676e-07
-9.34463e-07
-2.4303e-06
-3.90224e-06
-5.24416e-06
-6.34385e-06
-7.10507e-06
-7.47161e-06
-7.44369e-06
-7.07794e-06
-6.46916e-06
-5.72269e-06
-4.93054e-06
-4.15958e-06
-3.4511e-06
-2.82614e-06
-2.29159e-06
-1.84521e-06
-1.47927e-06
-1.18338e-06
-9.46623e-07
-7.58725e-07
-6.10616e-07
-4.94432e-07
-4.03423e-07
-3.3193e-07
-2.75455e-07
-2.30644e-07
-1.95065e-07
-1.66868e-07
-1.44479e-07
-1.26467e-07
-1.11592e-07
-9.89305e-08
-8.79361e-08
-7.83869e-08
-7.02328e-08
-6.34286e-08
-5.78265e-08
-5.31603e-08
-4.9108e-08
-4.538e-08
-4.17901e-08
-3.82773e-08
-3.48807e-08
-3.16845e-08
-2.87605e-08
-2.61284e-08
-2.37433e-08
-2.1507e-08
-1.92951e-08
-1.69844e-08
-1.44777e-08
-1.17174e-08
-8.7104e-09
-5.46455e-09
-2.12007e-09
7.91911e-06
7.91746e-06
7.91314e-06
7.90585e-06
7.89511e-06
7.88005e-06
7.85944e-06
7.83164e-06
7.79441e-06
7.7448e-06
7.67884e-06
7.59141e-06
7.47585e-06
7.32372e-06
7.12439e-06
6.86483e-06
6.52938e-06
6.09988e-06
5.55618e-06
4.87734e-06
4.04385e-06
3.04111e-06
1.86425e-06
5.24236e-07
-9.45718e-07
-2.48501e-06
-4.00448e-06
-5.3923e-06
-6.52914e-06
-7.31199e-06
-7.68041e-06
-7.63485e-06
-7.23665e-06
-6.588e-06
-5.80143e-06
-4.9739e-06
-4.17459e-06
-3.44513e-06
-2.80585e-06
-2.26253e-06
-1.81167e-06
-1.44437e-06
-1.14924e-06
-9.1457e-07
-7.29514e-07
-5.84608e-07
-4.71707e-07
-3.83852e-07
-3.15247e-07
-2.61332e-07
-2.18755e-07
-1.85127e-07
-1.58639e-07
-1.37734e-07
-1.20977e-07
-1.07126e-07
-9.52733e-08
-8.4912e-08
-7.5875e-08
-6.81626e-08
-6.17598e-08
-5.65249e-08
-5.21798e-08
-4.83855e-08
-4.48419e-08
-4.13653e-08
-3.79104e-08
-3.45396e-08
-3.13607e-08
-2.84628e-08
-2.58741e-08
-2.35487e-08
-2.13812e-08
-1.9237e-08
-1.69838e-08
-1.45177e-08
-1.17785e-08
-8.7733e-09
-5.51268e-09
-2.13684e-09
7.92399e-06
7.92253e-06
7.91869e-06
7.91218e-06
7.90251e-06
7.88884e-06
7.86999e-06
7.84437e-06
7.80979e-06
7.76332e-06
7.70106e-06
7.6179e-06
7.50718e-06
7.3604e-06
7.16682e-06
6.91318e-06
6.58346e-06
6.15896e-06
5.61879e-06
4.94102e-06
4.10497e-06
3.09471e-06
1.90408e-06
5.43126e-07
-9.55116e-07
-2.52893e-06
-4.08636e-06
-5.51099e-06
-6.67774e-06
-7.47801e-06
-7.84787e-06
-7.78792e-06
-7.36341e-06
-6.6826e-06
-5.8639e-06
-5.00824e-06
-4.18656e-06
-3.44067e-06
-2.79026e-06
-2.24016e-06
-1.78588e-06
-1.41759e-06
-1.12311e-06
-8.90079e-07
-7.07239e-07
-5.64818e-07
-4.54454e-07
-3.69029e-07
-3.02639e-07
-2.50674e-07
-2.09794e-07
-1.77647e-07
-1.52458e-07
-1.32683e-07
-1.16882e-07
-1.03806e-07
-9.25569e-08
-8.26628e-08
-7.40022e-08
-6.66173e-08
-6.05181e-08
-5.55668e-08
-5.1473e-08
-4.78809e-08
-4.44793e-08
-4.10853e-08
-3.76661e-08
-3.4304e-08
-3.11271e-08
-2.82406e-08
-2.56799e-08
-2.3399e-08
-2.12859e-08
-1.91973e-08
-1.69919e-08
-1.456e-08
-1.1838e-08
-8.833e-09
-5.55758e-09
-2.15155e-09
7.92698e-06
7.92563e-06
7.92212e-06
7.91612e-06
7.90716e-06
7.89442e-06
7.87675e-06
7.85258e-06
7.81976e-06
7.7754e-06
7.71562e-06
7.63533e-06
7.52787e-06
7.38469e-06
7.19498e-06
6.94534e-06
6.61949e-06
6.19838e-06
5.66059e-06
4.98354e-06
4.14571e-06
3.13024e-06
1.9301e-06
5.54623e-07
-9.63285e-07
-2.56118e-06
-4.14515e-06
-5.59561e-06
-6.78339e-06
-7.59589e-06
-7.9667e-06
-7.89649e-06
-7.45333e-06
-6.74983e-06
-5.90857e-06
-5.03327e-06
-4.19604e-06
-3.43876e-06
-2.78064e-06
-2.22584e-06
-1.76919e-06
-1.40018e-06
-1.10608e-06
-8.74119e-07
-6.92737e-07
-5.51958e-07
-4.43274e-07
-3.59457e-07
-2.94524e-07
-2.43837e-07
-2.04062e-07
-1.72877e-07
-1.48535e-07
-1.295e-07
-1.14323e-07
-1.01749e-07
-9.08847e-08
-8.12819e-08
-7.2853e-08
-6.5672e-08
-5.97678e-08
-5.50043e-08
-5.10806e-08
-4.7626e-08
-4.43185e-08
-4.09742e-08
-3.75689e-08
-3.41994e-08
-3.10104e-08
-2.81195e-08
-2.55691e-08
-2.33133e-08
-2.12356e-08
-1.91852e-08
-1.70138e-08
-1.46061e-08
-1.18955e-08
-8.88824e-09
-5.59861e-09
-2.16511e-09
7.92797e-06
7.92668e-06
7.92332e-06
7.91756e-06
7.90893e-06
7.89663e-06
7.87951e-06
7.85602e-06
7.82404e-06
7.78068e-06
7.72208e-06
7.64315e-06
7.53723e-06
7.39577e-06
7.20791e-06
6.96016e-06
6.63614e-06
6.21659e-06
5.67985e-06
5.00299e-06
4.16407e-06
3.14576e-06
1.94055e-06
5.57453e-07
-9.70723e-07
-2.58115e-06
-4.17893e-06
-5.6428e-06
-6.84148e-06
-7.66029e-06
-8.0315e-06
-7.95583e-06
-7.50285e-06
-6.78744e-06
-5.93438e-06
-5.0488e-06
-4.20343e-06
-3.44015e-06
-2.77791e-06
-2.22055e-06
-1.76251e-06
-1.39297e-06
-1.0989e-06
-8.6734e-07
-6.8656e-07
-5.46489e-07
-4.38546e-07
-3.55443e-07
-2.91154e-07
-2.41023e-07
-2.01723e-07
-1.7095e-07
-1.46973e-07
-1.2826e-07
-1.13355e-07
-1.00994e-07
-9.02863e-08
-8.07936e-08
-7.24482e-08
-6.53432e-08
-5.95189e-08
-5.48402e-08
-5.09983e-08
-4.76111e-08
-4.43474e-08
-4.10204e-08
-3.76093e-08
-3.42201e-08
-3.10077e-08
-2.8099e-08
-2.55416e-08
-2.32907e-08
-2.12271e-08
-1.91953e-08
-1.70417e-08
-1.46465e-08
-1.19407e-08
-8.92953e-09
-5.62803e-09
-2.17312e-09
7.92692e-06
7.92562e-06
7.92223e-06
7.91643e-06
7.90775e-06
7.89537e-06
7.87817e-06
7.85458e-06
7.82247e-06
7.77896e-06
7.7202e-06
7.64108e-06
7.53495e-06
7.39326e-06
7.20513e-06
6.95708e-06
6.63273e-06
6.21282e-06
5.67568e-06
4.9984e-06
4.15903e-06
3.14025e-06
1.93456e-06
5.50981e-07
-9.77651e-07
-2.58849e-06
-4.18661e-06
-5.65072e-06
-6.84952e-06
-7.6683e-06
-8.03934e-06
-7.96339e-06
-7.51003e-06
-6.79423e-06
-5.94074e-06
-5.05474e-06
-4.20894e-06
-3.44522e-06
-2.78255e-06
-2.22477e-06
-1.76632e-06
-1.3964e-06
-1.10198e-06
-8.70083e-07
-6.89001e-07
-5.48661e-07
-4.40479e-07
-3.57161e-07
-2.92674e-07
-2.42358e-07
-2.02886e-07
-1.71959e-07
-1.4785e-07
-1.29027e-07
-1.14029e-07
-1.01587e-07
-9.08025e-08
-8.12367e-08
-7.2825e-08
-6.56654e-08
-5.98022e-08
-5.51001e-08
-5.12461e-08
-4.78515e-08
-4.45783e-08
-4.12346e-08
-3.77986e-08
-3.43782e-08
-3.11323e-08
-2.81925e-08
-2.56102e-08
-2.33423e-08
-2.12693e-08
-1.92336e-08
-1.70789e-08
-1.46827e-08
-1.19736e-08
-8.95594e-09
-5.64507e-09
-2.17579e-09
7.92384e-06
7.92246e-06
7.91887e-06
7.91275e-06
7.90362e-06
7.89067e-06
7.87274e-06
7.84825e-06
7.81506e-06
7.77027e-06
7.71e-06
7.62915e-06
7.52105e-06
7.37716e-06
7.18665e-06
6.93612e-06
6.60929e-06
6.1871e-06
5.64814e-06
4.96983e-06
4.13066e-06
3.11379e-06
1.91221e-06
5.35314e-07
-9.83951e-07
-2.58307e-06
-4.16805e-06
-5.61922e-06
-6.80734e-06
-7.61975e-06
-7.99006e-06
-7.919e-06
-7.47476e-06
-6.77006e-06
-5.92756e-06
-5.051e-06
-4.21249e-06
-3.45392e-06
-2.7945e-06
-2.23844e-06
-1.78058e-06
-1.41043e-06
-1.11527e-06
-8.82319e-07
-7.00037e-07
-5.58451e-07
-4.49052e-07
-3.64593e-07
-2.99068e-07
-2.47827e-07
-2.07538e-07
-1.75892e-07
-1.51154e-07
-1.3179e-07
-1.16336e-07
-1.03517e-07
-9.24234e-08
-8.26027e-08
-7.39766e-08
-6.66333e-08
-6.06126e-08
-5.57784e-08
-5.18177e-08
-4.83401e-08
-4.50035e-08
-4.16097e-08
-3.81305e-08
-3.46687e-08
-3.13807e-08
-2.8398e-08
-2.57738e-08
-2.34674e-08
-2.13614e-08
-1.92991e-08
-1.7124e-08
-1.47125e-08
-1.19918e-08
-8.96514e-09
-5.64787e-09
-2.17227e-09
7.91879e-06
7.91727e-06
7.9133e-06
7.90659e-06
7.89663e-06
7.88261e-06
7.86333e-06
7.83718e-06
7.80199e-06
7.75481e-06
7.69174e-06
7.60765e-06
7.49588e-06
7.34792e-06
7.15302e-06
6.89791e-06
6.56657e-06
6.1403e-06
5.59819e-06
4.91835e-06
4.0801e-06
3.06754e-06
1.87457e-06
5.1129e-07
-9.89163e-07
-2.56497e-06
-4.12404e-06
-5.54982e-06
-6.71712e-06
-7.51724e-06
-7.88629e-06
-7.82496e-06
-7.3987e-06
-6.71594e-06
-5.89521e-06
-5.03749e-06
-4.21371e-06
-3.46569e-06
-2.81315e-06
-2.26098e-06
-1.80472e-06
-1.43455e-06
-1.13831e-06
-9.03655e-07
-7.1933e-07
-5.75577e-07
-4.64029e-07
-3.77541e-07
-3.10172e-07
-2.57293e-07
-2.15564e-07
-1.82654e-07
-1.56809e-07
-1.36487e-07
-1.20225e-07
-1.06743e-07
-9.51149e-08
-8.48632e-08
-7.5879e-08
-6.82271e-08
-6.19345e-08
-5.68632e-08
-5.27041e-08
-4.907e-08
-4.56171e-08
-4.21402e-08
-3.85996e-08
-3.50864e-08
-3.1748e-08
-2.87112e-08
-2.6029e-08
-2.36635e-08
-2.15017e-08
-1.93906e-08
-1.71761e-08
-1.47352e-08
-1.19946e-08
-8.95648e-09
-5.63573e-09
-2.16201e-09
7.91187e-06
7.91014e-06
7.90564e-06
7.89807e-06
7.88694e-06
7.87138e-06
7.85017e-06
7.82164e-06
7.78357e-06
7.73297e-06
7.66589e-06
7.57717e-06
7.46016e-06
7.30639e-06
7.10523e-06
6.84365e-06
6.50597e-06
6.07403e-06
5.52767e-06
4.84598e-06
4.00948e-06
3.00359e-06
1.82354e-06
4.80374e-07
-9.92576e-07
-2.53456e-06
-4.05624e-06
-5.4456e-06
-6.58317e-06
-7.36583e-06
-7.73316e-06
-7.68575e-06
-7.28519e-06
-6.6339e-06
-5.84457e-06
-5.01422e-06
-4.21203e-06
-3.47966e-06
-2.83746e-06
-2.2913e-06
-1.83772e-06
-1.46784e-06
-1.17031e-06
-9.3339e-07
-7.46285e-07
-5.99537e-07
-4.84995e-07
-3.95666e-07
-3.25707e-07
-2.70527e-07
-2.26776e-07
-1.92092e-07
-1.64692e-07
-1.43022e-07
-1.25622e-07
-1.11206e-07
-9.88306e-08
-8.7979e-08
-7.84994e-08
-7.04201e-08
-6.37481e-08
-5.83416e-08
-5.38984e-08
-5.00384e-08
-4.64187e-08
-4.28258e-08
-3.92048e-08
-3.56291e-08
-3.22312e-08
-2.91291e-08
-2.63734e-08
-2.39298e-08
-2.1691e-08
-1.95106e-08
-1.7239e-08
-1.47556e-08
-1.19872e-08
-8.93493e-09
-5.61296e-09
-2.14788e-09
7.90324e-06
7.90125e-06
7.89607e-06
7.8874e-06
7.87477e-06
7.85726e-06
7.83358e-06
7.80202e-06
7.76028e-06
7.70531e-06
7.63313e-06
7.53853e-06
7.41487e-06
7.25376e-06
7.04474e-06
6.77503e-06
6.42947e-06
5.99057e-06
5.43914e-06
4.7555e-06
3.9217e-06
2.92482e-06
1.76168e-06
4.44449e-07
-9.93385e-07
-2.49252e-06
-3.96717e-06
-5.31097e-06
-6.41154e-06
-7.17253e-06
-7.53774e-06
-7.50758e-06
-7.13893e-06
-6.5269e-06
-5.77701e-06
-4.98134e-06
-4.20679e-06
-3.49467e-06
-2.86606e-06
-2.32796e-06
-1.87817e-06
-1.509e-06
-1.21008e-06
-9.70504e-07
-7.80024e-07
-6.29586e-07
-5.11322e-07
-4.18443e-07
-3.45233e-07
-2.87159e-07
-2.40864e-07
-2.03945e-07
-1.74587e-07
-1.51221e-07
-1.32385e-07
-1.16791e-07
-1.03471e-07
-9.18628e-08
-8.17608e-08
-7.3146e-08
-6.59982e-08
-6.017e-08
-5.53672e-08
-5.12198e-08
-4.73875e-08
-4.36479e-08
-3.99274e-08
-3.62774e-08
-3.28107e-08
-2.96327e-08
-2.67903e-08
-2.42522e-08
-2.19188e-08
-1.9652e-08
-1.73087e-08
-1.47717e-08
-1.19688e-08
-8.90041e-09
-5.57923e-09
-2.1289e-09
7.89309e-06
7.89079e-06
7.88479e-06
7.87483e-06
7.86041e-06
7.84057e-06
7.81396e-06
7.77879e-06
7.73269e-06
7.67256e-06
7.59433e-06
7.49278e-06
7.36129e-06
7.19156e-06
6.97332e-06
6.69418e-06
6.33952e-06
5.89271e-06
5.3357e-06
4.65027e-06
3.82023e-06
2.83458e-06
1.69189e-06
4.0558e-07
-9.90849e-07
-2.43991e-06
-3.86e-06
-5.1513e-06
-6.20945e-06
-6.94568e-06
-7.30842e-06
-7.29785e-06
-6.96561e-06
-6.39864e-06
-5.69442e-06
-4.93931e-06
-4.19743e-06
-3.50952e-06
-2.89741e-06
-2.36931e-06
-1.92446e-06
-1.5565e-06
-1.25628e-06
-1.01379e-06
-8.19503e-07
-6.64836e-07
-5.42268e-07
-4.45253e-07
-3.6824e-07
-3.06766e-07
-2.57476e-07
-2.17929e-07
-1.86267e-07
-1.60902e-07
-1.40373e-07
-1.23385e-07
-1.08944e-07
-9.64386e-08
-8.55992e-08
-7.63526e-08
-6.86456e-08
-6.2322e-08
-5.70954e-08
-5.26074e-08
-4.85211e-08
-4.46049e-08
-4.07648e-08
-3.70265e-08
-3.348e-08
-3.02154e-08
-2.72741e-08
-2.4628e-08
-2.21857e-08
-1.98186e-08
-1.73914e-08
-1.47918e-08
-1.19486e-08
-8.8617e-09
-5.54196e-09
-2.10969e-09
7.88167e-06
7.87901e-06
7.87209e-06
7.86065e-06
7.84421e-06
7.82173e-06
7.79179e-06
7.75254e-06
7.70153e-06
7.63555e-06
7.55051e-06
7.44116e-06
7.30089e-06
7.12153e-06
6.89305e-06
6.6035e-06
6.23892e-06
5.78361e-06
5.22082e-06
4.53399e-06
3.70883e-06
2.73642e-06
1.61721e-06
3.65797e-07
-9.84432e-07
-2.37815e-06
-3.73842e-06
-4.97256e-06
-5.98476e-06
-6.69423e-06
-7.05422e-06
-7.06458e-06
-6.77152e-06
-6.2534e-06
-5.59912e-06
-4.88887e-06
-4.18354e-06
-3.52309e-06
-2.92994e-06
-2.4136e-06
-1.9748e-06
-1.60866e-06
-1.30732e-06
-1.06186e-06
-8.63505e-07
-7.04239e-07
-5.76938e-07
-4.75343e-07
-3.94092e-07
-3.28815e-07
-2.76166e-07
-2.33667e-07
-1.9942e-07
-1.71813e-07
-1.49378e-07
-1.30817e-07
-1.15107e-07
-1.01582e-07
-8.99065e-08
-7.99479e-08
-7.16142e-08
-6.47372e-08
-5.90366e-08
-5.41651e-08
-4.979e-08
-4.56702e-08
-4.16907e-08
-3.785e-08
-3.42129e-08
-3.08524e-08
-2.78032e-08
-2.50396e-08
-2.24787e-08
-2.0002e-08
-1.7483e-08
-1.48143e-08
-1.19267e-08
-8.81942e-09
-5.50121e-09
-2.08926e-09
7.86923e-06
7.86619e-06
7.85826e-06
7.84521e-06
7.82655e-06
7.80119e-06
7.76763e-06
7.72393e-06
7.66756e-06
7.59524e-06
7.50282e-06
7.38502e-06
7.2353e-06
7.0456e-06
6.8062e-06
6.50562e-06
6.13064e-06
5.6666e-06
5.09816e-06
4.41048e-06
3.59133e-06
2.6339e-06
1.54052e-06
3.26904e-07
-9.73893e-07
-2.30898e-06
-3.60642e-06
-4.78093e-06
-5.74545e-06
-6.4272e-06
-6.78418e-06
-6.81594e-06
-6.5632e-06
-6.09575e-06
-5.49383e-06
-4.83113e-06
-4.16502e-06
-3.53442e-06
-2.96221e-06
-2.45913e-06
-2.02742e-06
-1.66374e-06
-1.36163e-06
-1.11327e-06
-9.10753e-07
-7.46686e-07
-6.14387e-07
-5.07914e-07
-4.22119e-07
-3.52744e-07
-2.96465e-07
-2.50775e-07
-2.13731e-07
-1.83697e-07
-1.59197e-07
-1.38922e-07
-1.21822e-07
-1.07179e-07
-9.4589e-08
-8.38554e-08
-7.48443e-08
-6.73714e-08
-6.11597e-08
-5.58719e-08
-5.11791e-08
-4.68316e-08
-4.26933e-08
-3.87354e-08
-3.49969e-08
-3.15324e-08
-2.83687e-08
-2.54817e-08
-2.27966e-08
-2.02048e-08
-1.75886e-08
-1.48464e-08
-1.19111e-08
-8.78117e-09
-5.46323e-09
-2.07133e-09
7.85608e-06
7.85262e-06
7.84362e-06
7.82887e-06
7.80786e-06
7.77945e-06
7.74205e-06
7.69365e-06
7.63163e-06
7.55265e-06
7.45247e-06
7.32583e-06
7.16623e-06
6.9658e-06
6.71513e-06
6.40325e-06
6.01775e-06
5.54507e-06
4.97132e-06
4.2835e-06
3.4714e-06
2.53033e-06
1.46443e-06
2.90363e-07
-9.59326e-07
-2.2344e-06
-3.46807e-06
-4.5825e-06
-5.49921e-06
-6.15318e-06
-6.50697e-06
-6.55978e-06
-6.34709e-06
-5.93043e-06
-5.38151e-06
-4.76751e-06
-4.14209e-06
-3.54287e-06
-2.993e-06
-2.50435e-06
-2.08064e-06
-1.72007e-06
-1.41758e-06
-1.16653e-06
-9.59918e-07
-7.91011e-07
-6.53603e-07
-5.421e-07
-4.51585e-07
-3.77931e-07
-3.17851e-07
-2.68814e-07
-2.28837e-07
-1.96256e-07
-1.69581e-07
-1.47496e-07
-1.28921e-07
-1.13088e-07
-9.95261e-08
-8.7974e-08
-7.82527e-08
-7.01577e-08
-6.34119e-08
-5.76855e-08
-5.26536e-08
-4.80585e-08
-4.37443e-08
-3.96561e-08
-3.5807e-08
-3.22329e-08
-2.89516e-08
-2.59397e-08
-2.31288e-08
-2.04203e-08