/*--------------------------------*- C++ -*----------------------------------*\
| =========                 |                                                 |
| \\      /  F ield         | OpenFOAM: The Open Source CFD Toolbox           |
|  \\    /   O peration     | Version:  2512                                  |
|   \\  /    A nd           | Website:  www.openfoam.com                      |
|    \\/     M anipulation  |                                                 |
\*---------------------------------------------------------------------------*/
FoamFile
{
    version     2.0;
    format      ascii;
    arch        "LSB;label=32;scalar=64";
    class       volScalarField;
    location    "100";
    object      p;
}
// * * * * * * * * * * * * * * * * * * * * * * * * * * * * * * * * * * * * * //

dimensions      [0 2 -2 0 0 0 0];

internalField   nonuniform List<scalar> 
240106
(
6.23201e-05
6.2224e-05
6.19788e-05
6.15852e-05
6.1037e-05
6.03125e-05
5.93811e-05
5.82063e-05
5.67445e-05
5.49437e-05
5.27436e-05
5.00754e-05
4.68633e-05
4.30258e-05
3.84785e-05
3.31389e-05
2.69325e-05
1.98015e-05
1.17156e-05
2.68489e-06
-7.2266e-06
-1.78882e-05
-2.9092e-05
-4.05485e-05
-5.18901e-05
-6.2687e-05
-7.24765e-05
-8.08037e-05
-8.72698e-05
-9.15823e-05
-9.35936e-05
-9.3322e-05
-9.09473e-05
-8.67808e-05
-8.12192e-05
-7.46918e-05
-6.7613e-05
-6.03479e-05
-5.31931e-05
-4.6371e-05
-4.00332e-05
-3.42701e-05
-2.9122e-05
-2.45916e-05
-2.06552e-05
-1.72719e-05
-1.4391e-05
-1.1958e-05
-9.91775e-06
-8.21726e-06
-6.80745e-06
-5.64394e-06
-4.68751e-06
-3.90409e-06
-3.2644e-06
-2.7435e-06
-2.32011e-06
-1.97617e-06
-1.69631e-06
-1.4676e-06
-1.27929e-06
-1.12251e-06
-9.90079e-07
-8.76215e-07
-7.7628e-07
-6.86591e-07
-6.04268e-07
-5.27186e-07
-4.53915e-07
-3.83738e-07
-3.16575e-07
-2.5294e-07
-1.93786e-07
-1.40371e-07
-9.40456e-08
-5.61071e-08
-2.76044e-08
-9.19937e-09
-1.01837e-09
-3.31339e-09
6.23473e-05
6.22521e-05
6.20093e-05
6.16193e-05
6.10762e-05
6.03582e-05
5.94349e-05
5.82699e-05
5.68196e-05
5.50322e-05
5.28472e-05
5.01957e-05
4.70014e-05
4.3182e-05
3.86523e-05
3.33284e-05
2.71337e-05
2.00081e-05
1.19185e-05
2.87219e-06
-7.06977e-06
-1.77788e-05
-2.90479e-05
-4.05863e-05
-5.20227e-05
-6.2921e-05
-7.28092e-05
-8.12218e-05
-8.77499e-05
-9.20925e-05
-9.40983e-05
-9.3787e-05
-9.13445e-05
-8.70921e-05
-8.14375e-05
-7.482e-05
-6.76612e-05
-6.03306e-05
-5.31261e-05
-4.62695e-05
-3.99108e-05
-3.41377e-05
-2.89882e-05
-2.44625e-05
-2.05347e-05
-1.71623e-05
-1.42935e-05
-1.18727e-05
-9.8441e-06
-8.15445e-06
-6.7544e-06
-5.5995e-06
-4.65053e-06
-3.87349e-06
-3.2392e-06
-2.72284e-06
-2.30324e-06
-1.9624e-06
-1.68505e-06
-1.45832e-06
-1.2715e-06
-1.11583e-06
-9.842e-07
-8.70919e-07
-7.71434e-07
-6.82134e-07
-6.00202e-07
-5.23549e-07
-4.50775e-07
-3.81169e-07
-3.14647e-07
-2.51701e-07
-1.93253e-07
-1.40516e-07
-9.47933e-08
-5.73265e-08
-2.9105e-08
-1.0729e-08
-2.25971e-09
-3.85174e-09
6.24009e-05
6.23074e-05
6.20693e-05
6.16866e-05
6.11535e-05
6.04484e-05
5.95411e-05
5.83954e-05
5.69679e-05
5.52069e-05
5.30518e-05
5.04333e-05
4.72742e-05
4.34911e-05
3.89965e-05
3.37038e-05
2.75327e-05
2.04182e-05
1.2322e-05
3.24522e-06
-6.75657e-06
-1.75592e-05
-2.89574e-05
-4.06584e-05
-5.22836e-05
-6.33839e-05
-7.34692e-05
-8.20528e-05
-8.87049e-05
-9.31081e-05
-9.51032e-05
-9.47125e-05
-9.21345e-05
-8.77105e-05
-8.18704e-05
-7.50732e-05
-6.77554e-05
-6.02947e-05
-5.29918e-05
-4.60673e-05
-3.96673e-05
-3.38748e-05
-2.87226e-05
-2.42062e-05
-2.02956e-05
-1.6945e-05
-1.41001e-05
-1.17033e-05
-9.69792e-06
-8.02977e-06
-6.64911e-06
-5.51131e-06
-4.57716e-06
-3.8128e-06
-3.18927e-06
-2.68198e-06
-2.26994e-06
-1.93535e-06
-1.66303e-06
-1.44025e-06
-1.25645e-06
-1.103e-06
-9.72983e-07
-8.6087e-07
-7.62276e-07
-6.73734e-07
-5.92536e-07
-5.16677e-07
-4.44807e-07
-3.76235e-07
-3.10871e-07
-2.49174e-07
-1.92009e-07
-1.40514e-07
-9.59042e-08
-5.93176e-08
-3.16358e-08
-1.3347e-08
-4.40381e-09
-4.85963e-09
6.24796e-05
6.23888e-05
6.21574e-05
6.17856e-05
6.12671e-05
6.05809e-05
5.96972e-05
5.858e-05
5.71862e-05
5.54642e-05
5.33533e-05
5.07837e-05
4.76769e-05
4.39476e-05
3.95055e-05
3.42596e-05
2.81241e-05
2.10272e-05
1.29222e-05
3.80157e-06
-6.2878e-06
-1.72283e-05
-2.88178e-05
-4.07604e-05
-5.26669e-05
-6.40691e-05
-7.44498e-05
-8.32902e-05
-9.01287e-05
-9.4623e-05
-9.66016e-05
-9.60908e-05
-9.33088e-05
-8.86269e-05
-8.25087e-05
-7.54434e-05
-6.78891e-05
-6.02357e-05
-5.27876e-05
-4.57634e-05
-3.93034e-05
-3.34832e-05
-2.83279e-05
-2.38261e-05
-1.99415e-05
-1.66234e-05
-1.3814e-05
-1.14531e-05
-9.48209e-06
-7.8458e-06
-6.49385e-06
-5.38135e-06
-4.46911e-06
-3.7235e-06
-3.11589e-06
-2.62201e-06
-2.22118e-06
-1.89581e-06
-1.63094e-06
-1.414e-06
-1.23462e-06
-1.08443e-06
-9.56761e-07
-8.46343e-07
-7.49035e-07
-6.61574e-07
-5.81413e-07
-5.06661e-07
-4.36042e-07
-3.68896e-07
-3.05126e-07
-2.45151e-07
-1.8976e-07
-1.39986e-07
-9.69216e-08
-6.15653e-08
-3.46512e-08
-1.65196e-08
-6.9893e-09
-5.9948e-09
6.25814e-05
6.24941e-05
6.22716e-05
6.19137e-05
6.14143e-05
6.07527e-05
5.98995e-05
5.88193e-05
5.74694e-05
5.57983e-05
5.37451e-05
5.12393e-05
4.82012e-05
4.45427e-05
4.01698e-05
3.49862e-05
2.88988e-05
2.18266e-05
1.37122e-05
4.53619e-06
-5.66579e-06
-1.67854e-05
-2.86248e-05
-4.08848e-05
-5.31626e-05
-6.49648e-05
-7.57381e-05
-8.49207e-05
-9.2008e-05
-9.66238e-05
-9.85798e-05
-9.79078e-05
-9.48526e-05
-8.98267e-05
-8.33391e-05
-7.59193e-05
-6.80538e-05
-6.01482e-05
-5.25115e-05
-4.53586e-05
-3.8822e-05
-3.29675e-05
-2.78099e-05
-2.33283e-05
-1.94785e-05
-1.62037e-05
-1.34411e-05
-1.11272e-05
-9.20126e-06
-7.60664e-06
-6.29217e-06
-5.21264e-06
-4.32895e-06
-3.60775e-06
-3.02086e-06
-2.54445e-06
-2.15822e-06
-1.84486e-06
-1.58967e-06
-1.38032e-06
-1.20671e-06
-1.06076e-06
-9.36158e-07
-8.27972e-07
-7.32366e-07
-6.46337e-07
-5.67536e-07
-4.94215e-07
-4.25183e-07
-3.59822e-07
-2.98029e-07
-2.40172e-07
-1.86951e-07
-1.39278e-07
-9.80911e-08
-6.42264e-08
-3.82446e-08
-2.03179e-08
-1.01157e-08
-7.42868e-09
6.27039e-05
6.26207e-05
6.24088e-05
6.20678e-05
6.15915e-05
6.09595e-05
6.01433e-05
5.9108e-05
5.78112e-05
5.62018e-05
5.42188e-05
5.17907e-05
4.88363e-05
4.52647e-05
4.09773e-05
3.58711e-05
2.98443e-05
2.28049e-05
1.46822e-05
5.44213e-06
-4.89407e-06
-1.62299e-05
-2.83735e-05
-4.10224e-05
-5.37578e-05
-6.60553e-05
-7.73168e-05
-8.69263e-05
-9.43248e-05
-9.90924e-05
-0.000101019
-0.000100144
-9.67466e-05
-9.12909e-05
-8.43443e-05
-7.64864e-05
-6.82391e-05
-6.00262e-05
-5.21612e-05
-4.48542e-05
-3.82273e-05
-3.23338e-05
-2.71757e-05
-2.27207e-05
-1.89148e-05
-1.56936e-05
-1.29885e-05
-1.07322e-05
-8.86128e-06
-7.31738e-06
-6.04843e-06
-5.00889e-06
-4.15975e-06
-3.46808e-06
-2.90623e-06
-2.45092e-06
-2.08232e-06
-1.78348e-06
-1.53997e-06
-1.33977e-06
-1.1731e-06
-1.03228e-06
-9.11397e-07
-8.05935e-07
-7.12426e-07
-6.28163e-07
-5.51027e-07
-4.79428e-07
-4.12275e-07
-3.48992e-07
-2.89472e-07
-2.3403e-07
-1.83265e-07
-1.37951e-07
-9.88617e-08
-6.66513e-08
-4.16986e-08
-2.40058e-08
-1.31065e-08
-8.67976e-09
6.28438e-05
6.27655e-05
6.25658e-05
6.22442e-05
6.17943e-05
6.11965e-05
6.04228e-05
5.9439e-05
5.82036e-05
5.66655e-05
5.47636e-05
5.24258e-05
4.9569e-05
4.6099e-05
4.19121e-05
3.68979e-05
3.09445e-05
2.39469e-05
1.58189e-05
6.50901e-06
-3.97884e-06
-1.55628e-05
-2.80592e-05
-4.11628e-05
-5.44367e-05
-6.73204e-05
-7.91627e-05
-8.92823e-05
-9.70535e-05
-0.000102003
-0.000103894
-0.000102774
-9.89642e-05
-9.29944e-05
-8.55021e-05
-7.71271e-05
-6.84325e-05
-5.98627e-05
-5.17352e-05
-4.42529e-05
-3.75253e-05
-3.15904e-05
-2.64352e-05
-2.20137e-05
-1.82608e-05
-1.5103e-05
-1.24655e-05
-1.02766e-05
-8.46958e-06
-6.98451e-06
-5.76824e-06
-4.77487e-06
-3.96554e-06
-3.30783e-06
-2.77478e-06
-2.34374e-06
-1.99544e-06
-1.71332e-06
-1.48328e-06
-1.29363e-06
-1.13498e-06
-1.00009e-06
-8.8354e-07
-7.81286e-07
-6.9027e-07
-6.08117e-07
-5.32955e-07
-4.63363e-07
-3.98354e-07
-3.374e-07
-2.8039e-07
-2.27581e-07
-1.79467e-07
-1.36674e-07
-9.98033e-08
-6.93224e-08
-4.54295e-08
-2.79671e-08
-1.63464e-08
-1.0141e-08
6.29978e-05
6.29248e-05
6.27386e-05
6.24384e-05
6.20178e-05
6.14577e-05
6.07311e-05
5.98046e-05
5.86373e-05
5.71785e-05
5.53673e-05
5.31306e-05
5.03834e-05
4.70281e-05
4.29554e-05
3.80469e-05
3.21794e-05
2.52333e-05
1.71049e-05
7.7228e-06
-2.92938e-06
-1.47874e-05
-2.76782e-05
-4.12946e-05
-5.51807e-05
-6.87355e-05
-8.12465e-05
-9.19561e-05
-0.00010016
-0.00010532
-0.000107168
-0.000105762
-0.000101472
-9.49064e-05
-8.67863e-05
-7.78214e-05
-6.86211e-05
-5.96517e-05
-5.12334e-05
-4.35598e-05
-3.67248e-05
-3.07485e-05
-2.56009e-05
-2.12203e-05
-1.75291e-05
-1.4444e-05
-1.18831e-05
-9.76997e-06
-8.03476e-06
-6.61546e-06
-5.4579e-06
-4.51583e-06
-3.75063e-06
-3.13052e-06
-2.62932e-06
-2.22516e-06
-1.89933e-06
-1.63573e-06
-1.42062e-06
-1.24264e-06
-1.09287e-06
-9.64565e-07
-8.52846e-07
-7.5419e-07
-6.65989e-07
-5.86222e-07
-5.13277e-07
-4.45906e-07
-3.8323e-07
-3.24772e-07
-2.70415e-07
-2.20358e-07
-1.74987e-07
-1.34778e-07
-1.00155e-07
-7.13995e-08
-4.85415e-08
-3.12866e-08
-1.89674e-08
-1.11328e-08
6.31619e-05
6.30946e-05
6.29229e-05
6.26455e-05
6.22563e-05
6.17368e-05
6.10608e-05
6.0196e-05
5.9102e-05
5.7729e-05
5.60158e-05
5.38889e-05
5.12612e-05
4.80316e-05
4.40851e-05
3.92945e-05
3.35247e-05
2.66403e-05
1.85181e-05
9.0648e-06
-1.75925e-06
-1.39103e-05
-2.72286e-05
-4.14068e-05
-5.59693e-05
-7.02713e-05
-8.35317e-05
-9.49061e-05
-0.000103599
-0.000108998
-0.000110796
-0.000109062
-0.000104227
-9.699e-05
-8.81669e-05
-7.85476e-05
-6.8792e-05
-5.93885e-05
-5.06583e-05
-4.27827e-05
-3.58374e-05
-2.98224e-05
-2.46881e-05
-2.0356e-05
-1.67348e-05
-1.37306e-05
-1.12542e-05
-9.22395e-06
-7.56692e-06
-6.21902e-06
-5.12497e-06
-4.23823e-06
-3.52051e-06
-2.94079e-06
-2.4738e-06
-2.09852e-06
-1.79689e-06
-1.55324e-06
-1.3542e-06
-1.18882e-06
-1.04861e-06
-9.27411e-07
-8.20934e-07
-7.26213e-07
-6.41115e-07
-5.63983e-07
-4.93467e-07
-4.28495e-07
-3.68297e-07
-3.12447e-07
-2.60825e-07
-2.13576e-07
-1.70977e-07
-1.33353e-07
-1.00949e-07
-7.3872e-08
-5.19934e-08
-3.49061e-08
-2.18864e-08
-1.24656e-08
6.33319e-05
6.32706e-05
6.31139e-05
6.28605e-05
6.2504e-05
6.20268e-05
6.14038e-05
6.06035e-05
5.95864e-05
5.83035e-05
5.66937e-05
5.46828e-05
5.21821e-05
4.90868e-05
4.5276e-05
4.06137e-05
3.49522e-05
2.81394e-05
2.00316e-05
1.05111e-05
-4.87014e-07
-1.29425e-05
-2.67117e-05
-4.14894e-05
-5.67806e-05
-7.18943e-05
-8.59747e-05
-9.80808e-05
-0.000107314
-0.000112977
-0.000114719
-0.000112619
-0.00010718
-9.9202e-05
-8.96107e-05
-7.92832e-05
-6.89335e-05
-5.90712e-05
-5.00157e-05
-4.19333e-05
-3.48787e-05
-2.88295e-05
-2.37152e-05
-1.94391e-05
-1.58951e-05
-1.29787e-05
-1.05929e-05
-8.65105e-06
-7.07693e-06
-5.80443e-06
-4.77722e-06
-3.94849e-06
-3.2804e-06
-2.74283e-06
-2.31155e-06
-1.96643e-06
-1.69008e-06
-1.46729e-06
-1.28503e-06
-1.13274e-06
-1.00247e-06
-8.88654e-07
-7.87628e-07
-6.97018e-07
-6.15176e-07
-5.40809e-07
-4.72821e-07
-4.10311e-07
-3.52613e-07
-2.9936e-07
-2.50435e-07
-2.05937e-07
-1.66036e-07
-1.30912e-07
-1.00639e-07
-7.51513e-08
-5.41835e-08
-3.72429e-08
-2.36064e-08
-1.29141e-08
6.35036e-05
6.34483e-05
6.33069e-05
6.30778e-05
6.27546e-05
6.23205e-05
6.17514e-05
6.1017e-05
6.00787e-05
5.8888e-05
5.73845e-05
5.54933e-05
5.3124e-05
5.01686e-05
4.65002e-05
4.1974e-05
3.64294e-05
2.96976e-05
2.16128e-05
1.20321e-05
8.62946e-07
-1.19004e-05
-2.61331e-05
-4.15347e-05
-5.75921e-05
-7.35669e-05
-8.85238e-05
-0.000101417
-0.000111235
-0.000117184
-0.000118862
-0.000116365
-0.00011027
-0.000101493
-9.10818e-05
-8.00063e-05
-6.90363e-05
-5.87013e-05
-4.93156e-05
-4.10274e-05
-3.38682e-05
-2.77913e-05
-2.2704e-05
-1.84905e-05
-1.50298e-05
-1.22062e-05
-9.91526e-06
-8.06535e-06
-6.57704e-06
-5.38227e-06
-4.42368e-06
-3.65431e-06
-3.03688e-06
-2.54227e-06
-2.14739e-06
-1.83307e-06
-1.58257e-06
-1.3811e-06
-1.21597e-06
-1.07703e-06
-9.56866e-07
-8.50552e-07
-7.55098e-07
-6.68733e-07
-5.90286e-07
-5.18814e-07
-4.53451e-07
-3.93454e-07
-3.38259e-07
-2.87556e-07
-2.41248e-07
-1.99395e-07
-1.6208e-07
-1.29344e-07
-1.01099e-07
-7.7121e-08
-5.70196e-08
-4.02339e-08
-2.60409e-08
-1.4125e-08
6.36724e-05
6.36231e-05
6.34968e-05
6.32918e-05
6.30017e-05
6.26104e-05
6.2095e-05
6.1426e-05
6.05662e-05
5.94679e-05
5.80708e-05
5.63e-05
5.40636e-05
5.12501e-05
4.77275e-05
4.33419e-05
3.79205e-05
3.12771e-05
2.3224e-05
1.35922e-05
2.26001e-06
-1.08063e-05
-2.55035e-05
-4.15384e-05
-5.8382e-05
-7.52484e-05
-9.11205e-05
-0.000104842
-0.000115278
-0.000121529
-0.000123139
-0.000120218
-0.000113427
-0.00010381
-9.2543e-05
-8.06962e-05
-6.90948e-05
-5.82849e-05
-4.85726e-05
-4.00854e-05
-3.28293e-05
-2.67324e-05
-2.16787e-05
-1.75332e-05
-1.41598e-05
-1.14319e-05
-9.23781e-06
-7.48108e-06
-6.07933e-06
-4.96263e-06
-4.07267e-06
-3.36241e-06
-2.79526e-06
-2.34324e-06
-1.98447e-06
-1.70074e-06
-1.47594e-06
-1.29563e-06
-1.14743e-06
-1.02161e-06
-9.11299e-07
-8.12277e-07
-7.22244e-07
-6.40033e-07
-5.6494e-07
-4.96335e-07
-4.33556e-07
-3.75987e-07
-3.23156e-07
-2.74818e-07
-2.30903e-07
-1.91454e-07
-1.56483e-07
-1.25913e-07
-9.95085e-08
-7.69012e-08
-5.75914e-08
-4.09745e-08
-2.63909e-08
-1.37511e-08
6.3834e-05
6.37905e-05
6.36789e-05
6.34972e-05
6.3239e-05
6.28891e-05
6.24256e-05
6.18202e-05
6.10367e-05
6.00282e-05
5.87351e-05
5.70822e-05
5.49764e-05
5.23034e-05
4.89259e-05
4.46819e-05
3.93864e-05
3.28366e-05
2.48231e-05
1.51503e-05
3.66734e-06
-9.68913e-06
-2.48395e-05
-4.15006e-05
-5.91299e-05
-7.68961e-05
-9.36995e-05
-0.000108269
-0.000119341
-0.000125906
-0.000127445
-0.000124083
-0.000116573
-0.000106094
-9.39571e-05
-8.13353e-05
-6.91076e-05
-5.78334e-05
-4.78068e-05
-3.91325e-05
-3.17898e-05
-2.56809e-05
-2.06666e-05
-1.65926e-05
-1.33082e-05
-1.06764e-05
-8.57859e-06
-6.91395e-06
-5.59737e-06
-4.55716e-06
-3.73415e-06
-3.08132e-06
-2.56288e-06
-2.15211e-06
-1.82838e-06
-1.57442e-06
-1.37467e-06
-1.21497e-06
-1.08321e-06
-9.70035e-07
-8.69181e-07
-7.77133e-07
-6.92312e-07
-6.14161e-07
-5.42409e-07
-4.76701e-07
-4.16533e-07
-3.61384e-07
-3.10853e-07
-2.64755e-07
-2.23062e-07
-1.85819e-07
-1.52992e-07
-1.24407e-07
-9.97006e-08
-7.83779e-08
-5.98428e-08
-4.34509e-08
-2.85612e-08
-1.50945e-08
6.39842e-05
6.39461e-05
6.38482e-05
6.36884e-05
6.34602e-05
6.31492e-05
6.27346e-05
6.21892e-05
6.14777e-05
6.05543e-05
5.93598e-05
5.78192e-05
5.58381e-05
5.33e-05
5.00628e-05
4.59569e-05
4.07862e-05
3.43317e-05
2.63636e-05
1.66606e-05
5.04243e-06
-8.58394e-06
-2.41639e-05
-4.14263e-05
-5.98186e-05
-7.84666e-05
-9.61906e-05
-0.000111605
-0.000123315
-0.000130194
-0.00013166
-0.000127856
-0.000119624
-0.000108284
-9.52881e-05
-8.19098e-05
-6.90786e-05
-5.73631e-05
-4.70429e-05
-3.81979e-05
-3.07804e-05
-2.46671e-05
-1.96961e-05
-1.56948e-05
-1.24982e-05
-9.9598e-06
-7.95473e-06
-6.37838e-06
-5.14309e-06
-4.17558e-06
-3.41589e-06
-2.8171e-06
-2.34434e-06
-1.97221e-06
-1.68138e-06
-1.45545e-06
-1.27931e-06
-1.13899e-06
-1.02255e-06
-9.21021e-07
-8.28734e-07
-7.42918e-07
-6.62727e-07
-5.88204e-07
-5.19487e-07
-4.56447e-07
-3.98691e-07
-3.4575e-07
-2.9727e-07
-2.53118e-07
-2.13312e-07
-1.77922e-07
-1.46889e-07
-1.19967e-07
-9.66923e-08
-7.64612e-08
-5.86002e-08
-4.24496e-08
-2.74691e-08
-1.38747e-08
6.4119e-05
6.40858e-05
6.40004e-05
6.38604e-05
6.36595e-05
6.3384e-05
6.30139e-05
6.25232e-05
6.18775e-05
6.1032e-05
5.99281e-05
5.84907e-05
5.6625e-05
5.4212e-05
5.11058e-05
4.713e-05
4.20781e-05
3.5717e-05
2.77974e-05
1.80739e-05
6.3385e-06
-7.53089e-06
-2.35048e-05
-4.13259e-05
-6.04344e-05
-7.99178e-05
-9.85209e-05
-0.000114747
-0.000127074
-0.000134259
-0.000135656
-0.000131419
-0.000122487
-0.000110319
-9.65027e-05
-8.24105e-05
-6.9017e-05
-5.6896e-05
-4.63101e-05
-3.73143e-05
-2.98348e-05
-2.37236e-05
-1.87977e-05
-1.4867e-05
-1.17539e-05
-9.30323e-06
-7.38465e-06
-5.89025e-06
-4.73017e-06
-3.82965e-06
-3.12803e-06
-2.57859e-06
-2.14742e-06
-1.8105e-06
-1.54975e-06
-1.34959e-06
-1.19524e-06
-1.0728e-06
-9.70409e-07
-8.79437e-07
-7.94809e-07
-7.14501e-07
-6.38407e-07
-5.67153e-07
-5.01253e-07
-4.40765e-07
-3.85352e-07
-3.34559e-07
-2.88044e-07
-2.4571e-07
-2.07623e-07
-1.73885e-07
-1.44434e-07
-1.18979e-07
-9.69776e-08
-7.77389e-08
-6.05256e-08
-4.46586e-08
-2.96128e-08
-1.55349e-08
6.42347e-05
6.42058e-05
6.41314e-05
6.40087e-05
6.38317e-05
6.35871e-05
6.32561e-05
6.28133e-05
6.22254e-05
6.14482e-05
6.04241e-05
5.9078e-05
5.73144e-05
5.50129e-05
5.20238e-05
4.81651e-05
4.32215e-05
3.69472e-05
2.90757e-05
1.934e-05
7.50652e-06
-6.57353e-06
-2.28948e-05
-4.12144e-05
-6.09679e-05
-8.12103e-05
-0.000100618
-0.000117593
-0.000130492
-0.000137962
-0.000139294
-0.000134655
-0.000125073
-0.000112139
-9.75719e-05
-8.28332e-05
-6.89366e-05
-5.64572e-05
-4.56401e-05
-3.6516e-05
-2.89868e-05
-2.28823e-05
-1.80001e-05
-1.41347e-05
-1.10974e-05
-8.72537e-06
-6.88389e-06
-5.46226e-06
-4.36876e-06
-3.52732e-06
-2.87663e-06
-2.3702e-06
-1.97513e-06
-1.66876e-06
-1.4342e-06
-1.25659e-06
-1.12132e-06
-1.01448e-06
-9.24202e-07
-8.42131e-07
-7.63754e-07
-6.87778e-07
-6.14817e-07
-5.46061e-07
-4.82371e-07
-4.23953e-07
-3.7049e-07
-3.21498e-07
-2.76619e-07
-2.35772e-07
-1.9906e-07
-1.66622e-07
-1.38405e-07
-1.14094e-07
-9.3091e-08
-7.46395e-08
-5.79581e-08
-4.23767e-08
-2.74915e-08
-1.37636e-08
6.43284e-05
6.4303e-05
6.42375e-05
6.41293e-05
6.3972e-05
6.37531e-05
6.34544e-05
6.30514e-05
6.25115e-05
6.17914e-05
6.08338e-05
5.95641e-05
5.78862e-05
5.56784e-05
5.27883e-05
4.90293e-05
4.41785e-05
3.79797e-05
3.0152e-05
2.04099e-05
8.49804e-06
-5.75605e-06
-2.23685e-05
-4.11101e-05
-6.14143e-05
-8.23092e-05
-0.000102413
-0.000120041
-0.000133441
-0.000141161
-0.000142436
-0.000137444
-0.00012729
-0.000113688
-9.84715e-05
-8.31784e-05
-6.88548e-05
-5.60747e-05
-4.50659e-05
-3.58376e-05
-2.82704e-05
-2.21748e-05
-1.73319e-05
-1.35232e-05
-1.05506e-05
-8.24535e-06
-6.46895e-06
-5.10861e-06
-4.07109e-06
-3.27918e-06
-2.671e-06
-2.20029e-06
-1.83512e-06
-1.55409e-06
-1.34138e-06
-1.18272e-06
-1.0636e-06
-9.69943e-07
-8.89829e-07
-8.15089e-07
-7.41716e-07
-6.69089e-07
-5.98497e-07
-5.31659e-07
-4.69748e-07
-4.13085e-07
-3.61347e-07
-3.13993e-07
-2.70618e-07
-2.31133e-07
-1.95663e-07
-1.64377e-07
-1.37238e-07
-1.13917e-07
-9.37764e-08
-7.60154e-08
-5.9819e-08
-4.45154e-08
-2.97071e-08
-1.57096e-08
6.43972e-05
6.43746e-05
6.4316e-05
6.42187e-05
6.40765e-05
6.38773e-05
6.36033e-05
6.32309e-05
6.27279e-05
6.20517e-05
6.11454e-05
5.99346e-05
5.83231e-05
5.61879e-05
5.33749e-05
4.96937e-05
4.49159e-05
3.8777e-05
3.09849e-05
2.12397e-05
9.26846e-06
-5.12001e-06
-2.19596e-05
-4.10326e-05
-6.17719e-05
-8.31855e-05
-0.000103846
-0.000121997
-0.000135801
-0.000143724
-0.000144953
-0.000139675
-0.00012906
-0.00011492
-9.91828e-05
-8.34495e-05
-6.879e-05
-5.57754e-05
-4.46184e-05
-3.53106e-05
-2.77154e-05
-2.16282e-05
-1.68169e-05
-1.3053e-05
-1.0131e-05
-7.87746e-06
-6.15141e-06
-4.83843e-06
-3.84411e-06
-3.09028e-06
-2.5146e-06
-2.07101e-06
-1.7284e-06
-1.46647e-06
-1.27031e-06
-1.12609e-06
-1.0193e-06
-9.35654e-07
-8.63101e-07
-7.93593e-07
-7.23533e-07
-6.52884e-07
-5.83529e-07
-5.17655e-07
-4.56712e-07
-4.01118e-07
-3.50526e-07
-3.04323e-07
-2.62042e-07
-2.23562e-07
-1.8901e-07
-1.58572e-07
-1.32222e-07
-1.09622e-07
-9.01109e-08
-7.28556e-08
-5.70256e-08
-4.19742e-08
-2.74213e-08
-1.39472e-08
6.44392e-05
6.44184e-05
6.43644e-05
6.42744e-05
6.41423e-05
6.39561e-05
6.36987e-05
6.33466e-05
6.28683e-05
6.22214e-05
6.13495e-05
6.01782e-05
5.86113e-05
5.65251e-05
5.3764e-05
5.01353e-05
4.54069e-05
3.93085e-05
3.15404e-05
2.17928e-05
9.78058e-06
-4.70062e-06
-2.16971e-05
-4.09999e-05
-6.20416e-05
-8.38168e-05
-0.000104867
-0.000123385
-0.000137473
-0.000145539
-0.000146736
-0.000141254
-0.000130313
-0.000115794
-9.96921e-05
-8.36522e-05
-6.87599e-05
-5.55834e-05
-4.43245e-05
-3.49619e-05
-2.73475e-05
-2.12658e-05
-1.64759e-05
-1.27422e-05
-9.85412e-06
-7.63531e-06
-5.94304e-06
-4.66191e-06
-3.69666e-06
-2.96844e-06
-2.41449e-06
-1.98891e-06
-1.66121e-06
-1.41192e-06
-1.22682e-06
-1.09237e-06
-9.94001e-07
-9.17178e-07
-8.49679e-07
-7.83505e-07
-7.15348e-07
-6.45625e-07
-5.76692e-07
-5.11117e-07
-4.50579e-07
-3.95576e-07
-3.45734e-07
-3.00368e-07
-2.58936e-07
-2.21272e-07
-1.87483e-07
-1.57753e-07
-1.32056e-07
-1.10044e-07
-9.10394e-08
-7.41884e-08
-5.86516e-08
-4.37924e-08
-2.93313e-08
-1.56945e-08
6.44532e-05
6.44332e-05
6.43813e-05
6.42947e-05
6.41673e-05
6.39873e-05
6.37376e-05
6.33951e-05
6.29284e-05
6.22954e-05
6.14398e-05
6.02873e-05
5.87415e-05
5.66786e-05
5.39421e-05
5.03382e-05
4.56328e-05
3.95529e-05
3.17948e-05
2.20434e-05
1.00078e-05
-4.52332e-06
-2.16026e-05
-4.10255e-05
-6.22247e-05
-8.41876e-05
-0.00010544
-0.000124148
-0.000138383
-0.000146523
-0.000147701
-0.000142112
-0.000130999
-0.000116282
-9.99907e-05
-8.37912e-05
-6.87776e-05
-5.55163e-05
-4.42032e-05
-3.48106e-05
-2.71842e-05
-2.11033e-05
-1.63223e-05
-1.2602e-05
-9.7293e-06
-7.52641e-06
-5.84977e-06
-4.58348e-06
-3.63186e-06
-2.9156e-06
-2.37166e-06
-1.95419e-06
-1.63308e-06
-1.38935e-06
-1.20917e-06
-1.07915e-06
-9.84632e-07
-9.10849e-07
-8.45397e-07
-7.80254e-07
-7.12268e-07
-6.42142e-07
-5.72555e-07
-5.06346e-07
-4.45364e-07
-3.90174e-07
-3.40382e-07
-2.95245e-07
-2.54151e-07
-2.16876e-07
-1.83491e-07
-1.54159e-07
-1.28837e-07
-1.07165e-07
-8.84488e-08
-7.18244e-08
-5.64542e-08
-4.17298e-08
-2.74618e-08
-1.42641e-08
6.44384e-05
6.44182e-05
6.4366e-05
6.42788e-05
6.41505e-05
6.39695e-05
6.37186e-05
6.33745e-05
6.29061e-05
6.22711e-05
6.14131e-05
6.02579e-05
5.87091e-05
5.66428e-05
5.39026e-05
5.02945e-05
4.55844e-05
3.94994e-05
3.17357e-05
2.19785e-05
9.93663e-06
-4.60095e-06
-2.16868e-05
-4.1116e-05
-6.23212e-05
-8.42894e-05
-0.000105546
-0.000124257
-0.000138492
-0.00014663
-0.000147805
-0.000142211
-0.000131093
-0.000116371
-0.000100074
-8.38688e-05
-6.88499e-05
-5.55831e-05
-4.42644e-05
-3.48664e-05
-2.72348e-05
-2.11489e-05
-1.63633e-05
-1.26388e-05
-9.76219e-06
-7.55571e-06
-5.87594e-06
-4.607e-06
-3.65315e-06
-2.9349e-06
-2.3891e-06
-1.96981e-06
-1.64699e-06
-1.40178e-06
-1.22044e-06
-1.08958e-06
-9.94411e-07
-9.19989e-07
-8.53745e-07
-7.87564e-07
-7.18303e-07
-6.46759e-07
-5.75754e-07
-5.08265e-07
-4.46245e-07
-3.90306e-07
-3.40052e-07
-2.947e-07
-2.5358e-07
-2.1641e-07
-1.83208e-07
-1.54094e-07
-1.28995e-07
-1.07527e-07
-8.89823e-08
-7.24904e-08
-5.72172e-08
-4.25673e-08
-2.83523e-08
-1.5113e-08
6.43949e-05
6.43737e-05
6.43185e-05
6.42267e-05
6.40922e-05
6.3903e-05
6.36418e-05
6.32852e-05
6.28016e-05
6.21486e-05
6.12696e-05
6.00904e-05
5.85144e-05
5.64181e-05
5.36457e-05
5.00044e-05
4.52621e-05
3.91486e-05
3.13641e-05
2.15988e-05
9.56808e-06
-4.93239e-06
-2.19483e-05
-4.12701e-05
-6.23295e-05
-8.412e-05
-0.000105182
-0.000123707
-0.000137797
-0.000145859
-0.000147045
-0.00014155
-0.000130593
-0.000116057
-9.99396e-05
-8.38839e-05
-6.89757e-05
-5.57829e-05
-4.45074e-05
-3.51286e-05
-2.74985e-05
-2.14022e-05
-1.65986e-05
-1.28522e-05
-9.95239e-06
-7.72286e-06
-6.02119e-06
-4.73205e-06
-3.76002e-06
-3.02577e-06
-2.46612e-06
-2.03498e-06
-1.70205e-06
-1.4482e-06
-1.25945e-06
-1.12225e-06
-1.02169e-06
-9.42714e-07
-8.72614e-07
-8.03121e-07
-7.3095e-07
-6.56798e-07
-5.83434e-07
-5.13839e-07
-4.49992e-07
-3.92539e-07
-3.411e-07
-2.94882e-07
-2.53176e-07
-2.15643e-07
-1.82238e-07
-1.53021e-07
-1.27872e-07
-1.06373e-07
-8.78003e-08
-7.128e-08
-5.59851e-08
-4.1338e-08
-2.71927e-08
-1.4184e-08
6.43237e-05
6.43003e-05
6.42398e-05
6.41395e-05
6.39934e-05
6.37891e-05
6.35089e-05
6.3129e-05
6.26173e-05
6.19309e-05
6.1013e-05
5.97889e-05
5.81625e-05
5.60106e-05
5.31789e-05
4.94769e-05
4.46763e-05
3.85125e-05
3.06933e-05
2.09192e-05
8.91749e-06
-5.50253e-06
-2.23739e-05
-4.14779e-05
-6.22461e-05
-8.36845e-05
-0.000104364
-0.000122527
-0.000136333
-0.00014425
-0.000145463
-0.000140162
-0.000129521
-0.000115354
-9.95908e-05
-8.38316e-05
-6.9146e-05
-5.61046e-05
-4.49205e-05
-3.55858e-05
-2.7965e-05
-2.18536e-05
-1.70199e-05
-1.32352e-05
-1.02938e-05
-8.02268e-06
-6.28111e-06
-4.95492e-06
-3.94937e-06
-3.1856e-06
-2.60056e-06
-2.14791e-06
-1.79678e-06
-1.52739e-06
-1.32524e-06
-1.17646e-06
-1.06604e-06
-9.78835e-07
-9.02043e-07
-8.27178e-07
-7.5067e-07
-6.72918e-07
-5.96457e-07
-5.24124e-07
-4.57855e-07
-3.9831e-07
-3.45143e-07
-2.97577e-07
-2.54885e-07
-2.16676e-07
-1.82831e-07
-1.53333e-07
-1.27997e-07
-1.06364e-07
-8.76866e-08
-7.10888e-08
-5.57482e-08
-4.1092e-08
-2.69689e-08
-1.40245e-08
6.42261e-05
6.41997e-05
6.41316e-05
6.40192e-05
6.38563e-05
6.36304e-05
6.3323e-05
6.29097e-05
6.23577e-05
6.16235e-05
6.06498e-05
5.93618e-05
5.76633e-05
5.54323e-05
5.25164e-05
4.87287e-05
4.38465e-05
3.76134e-05
2.97486e-05
1.99668e-05
8.01324e-06
-6.28389e-06
-2.29397e-05
-4.17233e-05
-6.20664e-05
-8.29949e-05
-0.000103125
-0.000120767
-0.000134171
-0.000141882
-0.000143136
-0.000138114
-0.000127926
-0.000114287
-9.90339e-05
-8.37051e-05
-6.93456e-05
-5.65288e-05
-4.54829e-05
-3.62178e-05
-2.86154e-05
-2.24867e-05
-1.76129e-05
-1.37757e-05
-1.07766e-05
-8.44702e-06
-6.6492e-06
-5.2705e-06
-4.21732e-06
-3.41153e-06
-2.79036e-06
-2.30715e-06
-1.93019e-06
-1.63876e-06
-1.41755e-06
-1.25227e-06
-1.12773e-06
-1.02881e-06
-9.42584e-07
-8.60311e-07
-7.78001e-07
-6.95585e-07
-6.15193e-07
-5.39397e-07
-4.70017e-07
-4.07712e-07
-3.52182e-07
-3.02692e-07
-2.58515e-07
-2.19213e-07
-1.84585e-07
-1.54526e-07
-1.28772e-07
-1.06812e-07
-8.78739e-08
-7.10775e-08
-5.56034e-08
-4.08756e-08
-2.67262e-08
-1.37718e-08
6.41043e-05
6.40741e-05
6.39963e-05
6.38684e-05
6.36843e-05
6.34308e-05
6.30887e-05
6.26328e-05
6.20294e-05
6.12345e-05
6.01899e-05
5.88206e-05
5.70308e-05
5.47e-05
5.16782e-05
4.77835e-05
4.28004e-05
3.64829e-05
2.85648e-05
1.87796e-05
6.89412e-06
-7.23945e-06
-2.36144e-05
-4.1986e-05
-6.17874e-05
-8.20709e-05
-0.00010151
-0.000118504
-0.000131407
-0.000138865
-0.000140172
-0.000135497
-0.000125871
-0.000112892
-9.82803e-05
-8.34969e-05
-6.95552e-05
-5.70299e-05
-4.61664e-05
-3.69964e-05
-2.94231e-05
-2.32771e-05
-1.83562e-05
-1.4455e-05
-1.13844e-05
-8.98192e-06
-7.11343e-06
-5.66851e-06
-4.55505e-06
-3.69598e-06
-3.02889e-06
-2.50676e-06
-2.09692e-06
-1.77741e-06
-1.53194e-06
-1.34564e-06
-1.20316e-06
-1.08935e-06
-9.91213e-07
-8.99673e-07
-8.10216e-07
-7.22165e-07
-6.37104e-07
-5.57235e-07
-4.84196e-07
-4.18622e-07
-3.60264e-07
-3.08441e-07
-2.62438e-07
-2.2177e-07
-1.86151e-07
-1.55374e-07
-1.29087e-07
-1.06722e-07
-8.74793e-08
-7.04737e-08
-5.48848e-08
-4.01253e-08
-2.60003e-08
-1.31393e-08
6.39613e-05
6.39265e-05
6.38371e-05
6.36908e-05
6.34814e-05
6.3195e-05
6.28117e-05
6.23051e-05
6.16409e-05
6.07738e-05
5.96453e-05
5.81801e-05
5.6283e-05
5.3835e-05
5.06897e-05
4.66708e-05
4.15718e-05
3.51594e-05
2.71847e-05
1.74027e-05
5.60598e-06
-8.32622e-06
-2.43629e-05
-4.22445e-05
-6.14085e-05
-8.09394e-05
-9.95785e-05
-0.000115826
-0.000128158
-0.00013533
-0.000136697
-0.000132419
-0.000123437
-0.000111216
-9.73472e-05
-8.32021e-05
-6.97552e-05
-5.75798e-05
-4.69392e-05
-3.78892e-05
-3.03575e-05
-2.41971e-05
-1.92253e-05
-1.52521e-05
-1.20995e-05
-9.61269e-06
-7.66187e-06
-6.13947e-06
-4.95529e-06
-4.03348e-06
-3.31217e-06
-2.74399e-06
-2.29517e-06
-1.9424e-06
-1.66823e-06
-1.4571e-06
-1.29344e-06
-1.16208e-06
-1.04989e-06
-9.47443e-07
-8.49612e-07
-7.55009e-07
-6.64576e-07
-5.80053e-07
-5.02847e-07
-4.33536e-07
-3.71917e-07
-3.17365e-07
-2.6918e-07
-2.26831e-07
-1.89945e-07
-1.5821e-07
-1.31186e-07
-1.08246e-07
-8.85658e-08
-7.12562e-08
-5.54929e-08
-4.06642e-08
-2.65063e-08
-1.34955e-08
6.38002e-05
6.37602e-05
6.36577e-05
6.34904e-05
6.32523e-05
6.29288e-05
6.24988e-05
6.1935e-05
6.12019e-05
6.02536e-05
5.90306e-05
5.74577e-05
5.54404e-05
5.28618e-05
4.95796e-05
4.54243e-05
4.01994e-05
3.36863e-05
2.56554e-05
1.58858e-05
4.19826e-06
-9.49892e-06
-2.51493e-05
-4.24794e-05
-6.09334e-05
-7.9634e-05
-9.73975e-05
-0.000112835
-0.00012455
-0.000131415
-0.000132849
-0.000128998
-0.000120712
-0.000109314
-9.62577e-05
-8.28192e-05
-6.99271e-05
-5.81498e-05
-4.77674e-05
-3.88608e-05
-3.13839e-05
-2.52145e-05
-2.01912e-05
-1.61412e-05
-1.28995e-05
-1.03198e-05
-8.27763e-06
-6.6689e-06
-5.40558e-06
-4.41331e-06
-3.63085e-06
-3.01052e-06
-2.51746e-06
-2.12694e-06
-1.82025e-06
-1.58105e-06
-1.39347e-06
-1.24226e-06
-1.11415e-06
-9.99306e-07
-8.91959e-07
-7.89948e-07
-6.93499e-07
-6.03834e-07
-5.22069e-07
-4.48695e-07
-3.83528e-07
-3.25987e-07
-2.75383e-07
-2.31138e-07
-1.92791e-07
-1.59928e-07
-1.32025e-07
-1.08402e-07
-8.82194e-08
-7.05834e-08
-5.46648e-08
-3.98243e-08
-2.57435e-08
-1.28555e-08
6.36248e-05
6.35792e-05
6.34623e-05
6.32722e-05
6.30028e-05
6.26387e-05
6.21577e-05
6.15316e-05
6.07237e-05
5.96871e-05
5.83618e-05
5.66726e-05
5.45259e-05
5.18074e-05
4.83795e-05
4.40802e-05
3.87244e-05
3.21093e-05
2.40261e-05
1.42799e-05
2.72067e-06
-1.07133e-05
-2.59405e-05
-4.26748e-05
-6.03708e-05
-7.81933e-05
-9.50391e-05
-0.000109633
-0.000120711
-0.00012726
-0.000128765
-0.000125355
-0.000117786
-0.000107243
-9.50402e-05
-8.23519e-05
-7.00567e-05
-5.8714e-05
-4.86188e-05
-3.98765e-05
-3.2468e-05
-2.62968e-05
-2.12244e-05
-1.70965e-05
-1.3762e-05
-1.10842e-05
-8.945e-06
-7.24395e-06
-5.89567e-06
-4.82744e-06
-3.97877e-06
-3.30177e-06
-2.76055e-06
-2.32894e-06
-1.98692e-06
-1.71731e-06
-1.50384e-06
-1.33112e-06
-1.1857e-06
-1.05733e-06
-9.39581e-07
-8.29491e-07
-7.26545e-07
-6.31397e-07
-5.44829e-07
-4.67198e-07
-3.98307e-07
-3.37598e-07
-2.8438e-07
-2.38028e-07
-1.97999e-07
-1.63789e-07
-1.34804e-07
-1.10325e-07
-8.95008e-08
-7.14416e-08
-5.53097e-08
-4.04257e-08
-2.63724e-08
-1.33724e-08
6.34393e-05
6.33877e-05
6.32556e-05
6.30413e-05
6.27387e-05
6.23316e-05
6.17968e-05
6.11048e-05
6.02181e-05
5.90886e-05
5.7656e-05
5.58451e-05
5.35636e-05
5.07001e-05
4.71222e-05
4.2676e-05
3.71887e-05
3.04744e-05
2.23458e-05
1.26346e-05
1.22038e-06
-1.19289e-05
-2.67078e-05
-4.28204e-05
-5.97342e-05
-7.66597e-05
-9.2576e-05
-0.000106323
-0.000116764
-0.000123
-0.000124574
-0.000121602
-0.00011475
-0.000105065
-9.37276e-05
-8.18089e-05
-7.01344e-05
-5.92505e-05
-4.94639e-05
-4.09032e-05
-3.35759e-05
-2.74114e-05
-2.22946e-05
-1.80904e-05
-1.46625e-05
-1.18846e-05
-9.64519e-06
-7.84842e-06
-6.4116e-06
-5.26383e-06
-4.34551e-06
-3.60865e-06
-3.01641e-06
-2.54126e-06
-2.16187e-06
-1.86013e-06
-1.61932e-06
-1.42384e-06
-1.26001e-06
-1.11717e-06
-9.8825e-07
-8.69505e-07
-7.59665e-07