# Force       
# CofR        : (0.000000e+00 0.000000e+00 0.000000e+00)
#
# Time        	total_x total_y total_z	pressure_x pressure_y pressure_z	viscous_x viscous_y viscous_z
1              4.755943e-01 1.242851e-02 -4.281077e-03 3.764070e-01 1.239100e-02 -4.279293e-03 9.918734e-02 3.751102e-05 -1.784029e-06
2              5.787683e-01 1.557860e-02 -4.689528e-03 4.820636e-01 1.555542e-02 -4.706325e-03 9.670467e-02 2.317361e-05 1.679660e-05
3              5.400486e-01 1.495279e-02 -3.983592e-03 4.450821e-01 1.494541e-02 -4.014446e-03 9.496643e-02 7.386309e-06 3.085395e-05
4              4.226958e-01 1.175332e-02 -2.639810e-03 3.291586e-01 1.176233e-02 -2.678011e-03 9.353725e-02 -9.008746e-06 3.820107e-05
5              2.788750e-01 7.796764e-03 -1.080699e-03 1.865736e-01 7.824011e-03 -1.119043e-03 9.230131e-02 -2.724696e-05 3.834355e-05
6              1.483250e-01 4.346219e-03 2.376896e-04 5.710763e-02 4.392209e-03 2.050922e-04 9.121740e-02 -4.598970e-05 3.259735e-05
7              5.478134e-02 1.920289e-03 1.042916e-03 -3.546773e-02 1.982071e-03 1.019230e-03 9.024906e-02 -6.178206e-05 2.368640e-05
8              1.008160e-02 6.693752e-04 8.863592e-04 -7.928058e-02 7.403564e-04 8.718642e-04 8.936218e-02 -7.098120e-05 1.449497e-05
9              2.718930e-03 3.323023e-04 5.065896e-04 -8.579918e-02 4.043754e-04 4.993442e-04 8.851811e-02 -7.207311e-05 7.245383e-06
10             2.017647e-02 4.716011e-04 1.820522e-04 -6.749957e-02 5.373350e-04 1.789803e-04 8.767604e-02 -6.573393e-05 3.071936e-06
11             5.076671e-02 7.167118e-04 -2.397929e-05 -3.604886e-02 7.704384e-04 -2.618456e-05 8.681557e-02 -5.372658e-05 2.205270e-06
12             8.368551e-02 8.605194e-04 -8.970292e-05 -2.251051e-03 8.989624e-04 -9.381940e-05 8.593657e-02 -3.844300e-05 4.116480e-06
13             1.109886e-01 8.519869e-04 -3.600717e-05 2.593795e-02 8.746048e-04 -4.372663e-05 8.505068e-02 -2.261785e-05 7.719464e-06
14             1.284322e-01 7.622823e-04 9.193208e-05 4.425646e-02 7.709112e-04 8.013897e-05 8.417569e-02 -8.628901e-06 1.179312e-05
15             1.351526e-01 7.171646e-04 2.640478e-04 5.182355e-02 7.152155e-04 2.487488e-04 8.332906e-02 1.949142e-06 1.529891e-05
16             1.336421e-01 7.881075e-04 3.943159e-04 5.111810e-02 7.795379e-04 3.767444e-04 8.252400e-02 8.569537e-06 1.757149e-05
17             1.271383e-01 1.005642e-03 3.968566e-04 4.536631e-02 9.940795e-04 3.784506e-04 8.177199e-02 1.156211e-05 1.840599e-05
18             1.183599e-01 1.394511e-03 2.694823e-04 3.728416e-02 1.382770e-03 2.515583e-04 8.107579e-02 1.174087e-05 1.792399e-05
19             1.097620e-01 1.894369e-03 5.106556e-05 2.932968e-02 1.883929e-03 3.447761e-05 8.043232e-02 1.044008e-05 1.658795e-05
20             1.029917e-01 2.392576e-03 -1.988021e-04 2.315702e-02 2.383733e-03 -2.137033e-04 7.983465e-02 8.843843e-06 1.490118e-05
21             9.876225e-02 2.768850e-03 -4.188759e-04 1.948757e-02 2.761054e-03 -4.321517e-04 7.927468e-02 7.796210e-06 1.327589e-05
22             9.692257e-02 2.954579e-03 -5.687289e-04 1.817747e-02 2.946812e-03 -5.808041e-04 7.874510e-02 7.766499e-06 1.207528e-05
23             9.676803e-02 2.958840e-03 -6.324282e-04 1.852827e-02 2.949971e-03 -6.439241e-04 7.823976e-02 8.869124e-06 1.149586e-05
24             9.761970e-02 2.782399e-03 -5.933260e-04 1.986635e-02 2.771458e-03 -6.048530e-04 7.775335e-02 1.094156e-05 1.152701e-05
25             9.883763e-02 2.456668e-03 -4.587801e-04 2.155476e-02 2.442957e-03 -4.707430e-04 7.728287e-02 1.371074e-05 1.196295e-05
26             9.991531e-02 2.052913e-03 -2.635281e-04 2.308790e-02 2.036091e-03 -2.762453e-04 7.682741e-02 1.682184e-05 1.271722e-05
27             1.005555e-01 1.658132e-03 -5.571047e-05 2.416810e-02 1.638290e-03 -6.924346e-05 7.638740e-02 1.984238e-05 1.353299e-05
28             1.006697e-01 1.347113e-03 1.207452e-04 2.470582e-02 1.324478e-03 1.065433e-04 7.596384e-02 2.263530e-05 1.420190e-05
29             1.003846e-01 1.151129e-03 2.446347e-04 2.479999e-02 1.126016e-03 2.299904e-04 7.558460e-02 2.511346e-05 1.464428e-05
30             9.981351e-02 1.059032e-03 3.129407e-04 2.459099e-02 1.031854e-03 2.981271e-04 7.522252e-02 2.717775e-05 1.481357e-05
31             9.909470e-02 1.064114e-03 3.208229e-04 2.421753e-02 1.035248e-03 3.060381e-04 7.487717e-02 2.886568e-05 1.478476e-05
32             9.835588e-02 1.133005e-03 2.797461e-04 2.380768e-02 1.103017e-03 2.651348e-04 7.454819e-02 2.998756e-05 1.461136e-05
33             9.766816e-02 1.241643e-03 2.036741e-04 2.343364e-02 1.210631e-03 1.892753e-04 7.423452e-02 3.101207e-05 1.439884e-05
34             9.702959e-02 1.359162e-03 1.098923e-04 2.311580e-02 1.327204e-03 9.568340e-05 7.391379e-02 3.195837e-05 1.420895e-05
35             9.647927e-02 1.458750e-03 1.756930e-05 2.287150e-02 1.425900e-03 3.500099e-06 7.360777e-02 3.284908e-05 1.406920e-05
36             9.601684e-02 1.518956e-03 -5.569815e-05 2.270148e-02 1.485235e-03 -6.969201e-05 7.331537e-02 3.372080e-05 1.399387e-05
37             9.562968e-02 1.534143e-03 -1.013671e-04 2.259368e-02 1.499577e-03 -1.153699e-04 7.303600e-02 3.456673e-05 1.400277e-05
38             9.529595e-02 1.509458e-03 -1.197043e-04 2.252685e-02 1.474080e-03 -1.337772e-04 7.276909e-02 3.537764e-05 1.407291e-05
39             9.499552e-02 1.453091e-03 -1.143929e-04 2.248171e-02 1.416994e-03 -1.285644e-04 7.251381e-02 3.609677e-05 1.417144e-05
40             9.471409e-02 1.375966e-03 -9.189811e-05 2.244454e-02 1.339260e-03 -1.061990e-04 7.226955e-02 3.670571e-05 1.430087e-05
41             9.444297e-02 1.289970e-03 -6.031462e-05 2.240697e-02 1.252788e-03 -7.474624e-05 7.203600e-02 3.718145e-05 1.443162e-05
42             9.417867e-02 1.206274e-03 -2.760805e-05 2.236574e-02 1.168743e-03 -4.213651e-05 7.181293e-02 3.753082e-05 1.452846e-05
43             9.392133e-02 1.134232e-03 -4.351239e-07 2.232126e-02 1.096447e-03 -1.502205e-05 7.160006e-02 3.778483e-05 1.458693e-05
44             9.367199e-02 1.079593e-03 1.684313e-05 2.227495e-02 1.041632e-03 2.228336e-06 7.139704e-02 3.796126e-05 1.461479e-05
45             9.343132e-02 1.043610e-03 2.266711e-05 2.222785e-02 1.005543e-03 8.047671e-06 7.120347e-02 3.806677e-05 1.461944e-05
46             9.320006e-02 1.024258e-03 1.785983e-05 2.218102e-02 9.861226e-04 3.257768e-06 7.101903e-02 3.813580e-05 1.460206e-05
47             9.297904e-02 1.018042e-03 4.662267e-06 2.213569e-02 9.798627e-04 -9.907598e-06 7.084335e-02 3.817942e-05 1.456986e-05
48             9.276925e-02 1.021338e-03 -1.399275e-05 2.209316e-02 9.831284e-04 -2.852497e-05 7.067610e-02 3.820981e-05 1.453222e-05
49             9.257070e-02 1.029970e-03 -3.440615e-05 2.205387e-02 9.917411e-04 -4.890591e-05 7.051683e-02 3.822864e-05 1.449977e-05
50             9.238300e-02 1.039161e-03 -5.282431e-05 2.201773e-02 1.000926e-03 -6.730700e-05 7.036527e-02 3.823564e-05 1.448269e-05
51             9.220592e-02 1.045484e-03 -6.693259e-05 2.198481e-02 1.007267e-03 -8.141114e-05 7.022112e-02 3.821677e-05 1.447855e-05
52             9.203904e-02 1.047750e-03 -7.613173e-05 2.195509e-02 1.009587e-03 -9.062242e-05 7.008395e-02 3.816352e-05 1.449069e-05
53             9.188164e-02 1.046211e-03 -8.092304e-05 2.192815e-02 1.008137e-03 -9.543387e-05 6.995349e-02 3.807440e-05 1.451083e-05
54             9.173271e-02 1.041673e-03 -8.229865e-05 2.190339e-02 1.003735e-03 -9.683396e-05 6.982932e-02 3.793833e-05 1.453531e-05
55             9.159148e-02 1.035161e-03 -8.149256e-05 2.188026e-02 9.974047e-04 -9.605422e-05 6.971121e-02 3.775627e-05 1.456166e-05
56             9.144525e-02 1.027663e-03 -7.979191e-05 2.185826e-02 9.901549e-04 -9.437721e-05 6.958699e-02 3.750838e-05 1.458530e-05
57             9.130556e-02 1.019933e-03 -7.845271e-05 2.183611e-02 9.827096e-04 -9.305788e-05 6.946945e-02 3.722343e-05 1.460516e-05
58             9.117240e-02 1.013023e-03 -7.843390e-05 2.181396e-02 9.761136e-04 -9.304970e-05 6.935844e-02 3.690988e-05 1.461580e-05
59             9.104614e-02 1.007903e-03 -8.001391e-05 2.179236e-02 9.713318e-04 -9.463368e-05 6.925378e-02 3.657071e-05 1.461977e-05
60             9.092680e-02 1.004905e-03 -8.300959e-05 2.177150e-02 9.686957e-04 -9.763063e-05 6.915530e-02 3.620940e-05 1.462103e-05
61             9.081404e-02 1.003852e-03 -8.717239e-05 2.175128e-02 9.680185e-04 -1.017954e-04 6.906276e-02 3.583370e-05 1.462303e-05
62             9.070764e-02 1.004485e-03 -9.227953e-05 2.173171e-02 9.690264e-04 -1.069080e-04 6.897593e-02 3.545809e-05 1.462849e-05
63             9.060748e-02 1.006550e-03 -9.801003e-05 2.171298e-02 9.714593e-04 -1.126423e-04 6.889450e-02 3.509115e-05 1.463224e-05
64             9.051360e-02 1.009787e-03 -1.039782e-04 2.169532e-02 9.750456e-04 -1.186171e-04 6.881828e-02 3.474134e-05 1.463897e-05
65             9.042599e-02 1.013985e-03 -1.098740e-04 2.167893e-02 9.795732e-04 -1.245215e-04 6.874705e-02 3.441165e-05 1.464746e-05
66             9.034457e-02 1.018969e-03 -1.154347e-04 2.166400e-02 9.848690e-04 -1.300939e-04 6.868057e-02 3.409977e-05 1.465921e-05
67             9.026938e-02 1.024333e-03 -1.203061e-04 2.165077e-02 9.905328e-04 -1.349802e-04 6.861861e-02 3.380061e-05 1.467405e-05
68             9.020021e-02 1.029482e-03 -1.241969e-04 2.163933e-02 9.959667e-04 -1.388894e-04 6.856088e-02 3.351505e-05 1.469255e-05
69             9.013660e-02 1.034053e-03 -1.271330e-04 2.162945e-02 1.000808e-03 -1.418451e-04 6.850716e-02 3.324570e-05 1.471207e-05
70             9.007791e-02 1.038086e-03 -1.293920e-04 2.162068e-02 1.005095e-03 -1.441219e-04 6.845723e-02 3.299179e-05 1.472994e-05
71             9.002680e-02 1.042118e-03 -1.310574e-04 2.161591e-02 1.009401e-03 -1.458048e-04 6.841089e-02 3.271728e-05 1.474734e-05
72             8.998105e-02 1.046326e-03 -1.325261e-04 2.161315e-02 1.013863e-03 -1.472901e-04 6.836790e-02 3.246282e-05 1.476400e-05
73             8.993880e-02 1.050733e-03 -1.340515e-04 2.161073e-02 1.018507e-03 -1.488298e-04 6.832807e-02 3.222583e-05 1.477833e-05
74             8.989871e-02 1.055287e-03 -1.357606e-04 2.160751e-02 1.023282e-03 -1.505515e-04 6.829120e-02 3.200501e-05 1.479083e-05
75             8.985749e-02 1.059750e-03 -1.378663e-04 2.160035e-02 1.027919e-03 -1.526686e-04 6.825714e-02 3.183094e-05 1.480231e-05
76             8.981867e-02 1.064186e-03 -1.400659e-04 2.159299e-02 1.032548e-03 -1.548819e-04 6.822569e-02 3.163845e-05 1.481603e-05
77             8.978229e-02 1.068524e-03 -1.422906e-04 2.158564e-02 1.037062e-03 -1.571210e-04 6.819666e-02 3.146160e-05 1.483044e-05
78             8.974843e-02 1.072630e-03 -1.444381e-04 2.157854e-02 1.041331e-03 -1.592838e-04 6.816989e-02 3.129947e-05 1.484568e-05
79             8.971713e-02 1.076371e-03 -1.463937e-04 2.157190e-02 1.045219e-03 -1.612551e-04 6.814523e-02 3.115130e-05 1.486139e-05
80             8.968836e-02 1.079660e-03 -1.480772e-04 2.156583e-02 1.048643e-03 -1.629547e-04 6.812253e-02 3.101646e-05 1.487751e-05
81             8.966199e-02 1.082498e-03 -1.494774e-04 2.156033e-02 1.051605e-03 -1.643715e-04 6.810166e-02 3.089365e-05 1.489411e-05
82             8.963937e-02 1.085143e-03 -1.504872e-04 2.155687e-02 1.054359e-03 -1.653986e-04 6.808250e-02 3.078405e-05 1.491137e-05
83             8.961929e-02 1.087563e-03 -1.512768e-04 2.155440e-02 1.056879e-03 -1.662040e-04 6.806489e-02 3.068364e-05 1.492719e-05
84             8.959951e-02 1.089573e-03 -1.521008e-04 2.155078e-02 1.058981e-03 -1.670413e-04 6.804873e-02 3.059237e-05 1.494048e-05
85             8.958009e-02 1.091249e-03 -1.529577e-04 2.154617e-02 1.060737e-03 -1.679109e-04 6.803392e-02 3.051209e-05 1.495325e-05
86             8.956125e-02 1.092668e-03 -1.538250e-04 2.154090e-02 1.062226e-03 -1.687908e-04 6.802035e-02 3.044200e-05 1.496587e-05
87             8.954437e-02 1.094001e-03 -1.545634e-04 2.153643e-02 1.063619e-03 -1.695430e-04 6.800793e-02 3.038251e-05 1.497962e-05
88             8.952909e-02 1.095233e-03 -1.552066e-04 2.153251e-02 1.064902e-03 -1.701990e-04 6.799658e-02 3.033075e-05 1.499240e-05
89             8.951416e-02 1.096266e-03 -1.558744e-04 2.152798e-02 1.065980e-03 -1.708771e-04 6.798618e-02 3.028536e-05 1.500273e-05
90             8.950080e-02 1.097178e-03 -1.564161e-04 2.152412e-02 1.066930e-03 -1.714296e-04 6.797669e-02 3.024827e-05 1.501355e-05
91             8.948879e-02 1.097937e-03 -1.568298e-04 2.152077e-02 1.067720e-03 -1.718529e-04 6.796802e-02 3.021708e-05 1.502311e-05
92             8.948032e-02 1.098561e-03 -1.569732e-04 2.151939e-02 1.068370e-03 -1.720041e-04 6.796093e-02 3.019029e-05 1.503088e-05
93             8.947254e-02 1.099018e-03 -1.571009e-04 2.151810e-02 1.068843e-03 -1.721380e-04 6.795444e-02 3.017564e-05 1.503711e-05
94             8.946522e-02 1.099347e-03 -1.572203e-04 2.151672e-02 1.069184e-03 -1.722630e-04 6.794849e-02 3.016310e-05 1.504272e-05
95             8.945822e-02 1.099596e-03 -1.573391e-04 2.151519e-02 1.069444e-03 -1.723870e-04 6.794303e-02 3.015237e-05 1.504787e-05
96             8.945149e-02 1.099800e-03 -1.574613e-04 2.151348e-02 1.069657e-03 -1.725139e-04 6.793801e-02 3.014292e-05 1.505263e-05
97             8.944501e-02 1.099983e-03 -1.575852e-04 2.151161e-02 1.069848e-03 -1.726422e-04 6.793340e-02 3.013448e-05 1.505706e-05
98             8.943879e-02 1.100155e-03 -1.577055e-04 2.150964e-02 1.070028e-03 -1.727667e-04 6.792915e-02 3.012695e-05 1.506117e-05
99             8.943285e-02 1.100322e-03 -1.578171e-04 2.150760e-02 1.070202e-03 -1.728821e-04 6.792525e-02 3.012031e-05 1.506495e-05
100            8.942719e-02 1.100487e-03 -1.579178e-04 2.150553e-02 1.070373e-03 -1.729862e-04 6.792166e-02 3.011455e-05 1.506841e-05
101            8.942183e-02 1.100655e-03 -1.580068e-04 2.150348e-02 1.070545e-03 -1.730783e-04 6.791835e-02 3.010965e-05 1.507155e-05
102            8.941679e-02 1.100825e-03 -1.580821e-04 2.150148e-02 1.070719e-03 -1.731565e-04 6.791531e-02 3.010553e-05 1.507438e-05
103            8.941207e-02 1.100995e-03 -1.581404e-04 2.149957e-02 1.070893e-03 -1.732173e-04 6.791250e-02 3.010207e-05 1.507692e-05
104            8.940769e-02 1.101164e-03 -1.581799e-04 2.149777e-02 1.071065e-03 -1.732591e-04 6.790992e-02 3.009911e-05 1.507918e-05
105            8.940363e-02 1.101335e-03 -1.582038e-04 2.149609e-02 1.071238e-03 -1.732849e-04 6.790754e-02 3.009650e-05 1.508120e-05
106            8.939986e-02 1.101513e-03 -1.582193e-04 2.149452e-02 1.071419e-03 -1.733022e-04 6.790534e-02 3.009410e-05 1.508299e-05
107            8.939635e-02 1.101706e-03 -1.582349e-04 2.149304e-02 1.071614e-03 -1.733195e-04 6.790331e-02 3.009176e-05 1.508460e-05
108            8.939306e-02 1.101919e-03 -1.582575e-04 2.149162e-02 1.071830e-03 -1.733435e-04 6.790144e-02 3.008943e-05 1.508607e-05
109            8.938998e-02 1.102154e-03 -1.582903e-04 2.149027e-02 1.072067e-03 -1.733777e-04 6.789971e-02 3.008706e-05 1.508740e-05
110            8.938708e-02 1.102409e-03 -1.583335e-04 2.148897e-02 1.072324e-03 -1.734222e-04 6.789811e-02 3.008463e-05 1.508865e-05
111            8.938440e-02 1.102681e-03 -1.583861e-04 2.148774e-02 1.072599e-03 -1.734758e-04 6.789666e-02 3.008224e-05 1.508975e-05
112            8.938190e-02 1.102970e-03 -1.584457e-04 2.148660e-02 1.072890e-03 -1.735365e-04 6.789531e-02 3.007981e-05 1.509081e-05
113            8.937960e-02 1.103274e-03 -1.585102e-04 2.148555e-02 1.073196e-03 -1.736020e-04 6.789405e-02 3.007741e-05 1.509180e-05
114            8.937751e-02 1.103589e-03 -1.585760e-04 2.148462e-02 1.073514e-03 -1.736687e-04 6.789289e-02 3.007507e-05 1.509272e-05
115            8.937563e-02 1.103909e-03 -1.586380e-04 2.148381e-02 1.073837e-03 -1.737315e-04 6.789181e-02 3.007288e-05 1.509358e-05
116            8.937395e-02 1.104226e-03 -1.586914e-04 2.148314e-02 1.074156e-03 -1.737858e-04 6.789081e-02 3.007086e-05 1.509439e-05
117            8.937247e-02 1.104536e-03 -1.587345e-04 2.148259e-02 1.074467e-03 -1.738296e-04 6.788988e-02 3.006905e-05 1.509514e-05
118            8.937115e-02 1.104839e-03 -1.587692e-04 2.148213e-02 1.074771e-03 -1.738650e-04 6.788902e-02 3.006746e-05 1.509584e-05
119            8.936995e-02 1.105140e-03 -1.587991e-04 2.148174e-02 1.075074e-03 -1.738956e-04 6.788821e-02 3.006613e-05 1.509650e-05
120            8.936886e-02 1.105444e-03 -1.588278e-04 2.148140e-02 1.075379e-03 -1.739250e-04 6.788746e-02 3.006510e-05 1.509711e-05
121            8.936784e-02 1.105755e-03 -1.588577e-04 2.148108e-02 1.075690e-03 -1.739553e-04 6.788676e-02 3.006439e-05 1.509766e-05
122            8.936689e-02 1.106071e-03 -1.588895e-04 2.148078e-02 1.076007e-03 -1.739877e-04 6.788611e-02 3.006402e-05 1.509816e-05
123            8.936599e-02 1.106392e-03 -1.589233e-04 2.148049e-02 1.076328e-03 -1.740220e-04 6.788550e-02 3.006401e-05 1.509862e-05
124            8.936515e-02 1.106716e-03 -1.589589e-04 2.148021e-02 1.076651e-03 -1.740579e-04 6.788494e-02 3.006436e-05 1.509902e-05
125            8.936436e-02 1.107039e-03 -1.589958e-04 2.147995e-02 1.076974e-03 -1.740951e-04 6.788441e-02 3.006505e-05 1.509936e-05
126            8.936362e-02 1.107359e-03 -1.590326e-04 2.147971e-02 1.077293e-03 -1.741323e-04 6.788391e-02 3.006608e-05 1.509964e-05
127            8.936294e-02 1.107669e-03 -1.590670e-04 2.147949e-02 1.077602e-03 -1.741669e-04 6.788345e-02 3.006743e-05 1.509986e-05
128            8.936232e-02 1.107963e-03 -1.590961e-04 2.147930e-02 1.077894e-03 -1.741962e-04 6.788302e-02 3.006904e-05 1.510003e-05
129            8.936175e-02 1.108238e-03 -1.591186e-04 2.147913e-02 1.078167e-03 -1.742187e-04 6.788262e-02 3.007087e-05 1.510014e-05
130            8.936122e-02 1.108494e-03 -1.591351e-04 2.147899e-02 1.078421e-03 -1.742353e-04 6.788224e-02 3.007287e-05 1.510021e-05
131            8.936073e-02 1.108736e-03 -1.591478e-04 2.147885e-02 1.078661e-03 -1.742481e-04 6.788188e-02 3.007500e-05 1.510023e-05
132            8.936027e-02 1.108967e-03 -1.591592e-04 2.147872e-02 1.078890e-03 -1.742594e-04 6.788155e-02 3.007723e-05 1.510021e-05
133            8.935983e-02 1.109191e-03 -1.591707e-04 2.147859e-02 1.079112e-03 -1.742708e-04 6.788124e-02 3.007956e-05 1.510015e-05
134            8.935940e-02 1.109409e-03 -1.591829e-04 2.147846e-02 1.079327e-03 -1.742829e-04 6.788095e-02 3.008197e-05 1.510005e-05
135            8.935899e-02 1.109620e-03 -1.591959e-04 2.147832e-02 1.079535e-03 -1.742958e-04 6.788067e-02 3.008444e-05 1.509991e-05
