# Force       
# CofR        : (0.000000e+00 0.000000e+00 0.000000e+00)
#
# Time        	total_x total_y total_z	pressure_x pressure_y pressure_z	viscous_x viscous_y viscous_z
1              1.244293e+00 3.315985e-02 -1.081787e-02 1.041815e+00 3.309071e-02 -1.081437e-02 2.024789e-01 6.913313e-05 -3.493939e-06
2              1.593220e+00 4.996577e-02 -1.183842e-02 1.387713e+00 4.990356e-02 -1.186392e-02 2.055065e-01 6.220865e-05 2.549199e-05
3              1.530044e+00 5.143328e-02 -9.879066e-03 1.321192e+00 5.138702e-02 -9.926818e-03 2.088521e-01 4.625634e-05 4.775212e-05
4              1.224529e+00 4.329705e-02 -6.349881e-03 1.012559e+00 4.327352e-02 -6.409721e-03 2.119696e-01 2.352805e-05 5.983981e-05
5              8.262595e-01 3.113737e-02 -2.435686e-03 6.114695e-01 3.114549e-02 -2.496296e-03 2.147900e-01 -8.126264e-06 6.061047e-05
6              4.533029e-01 1.905423e-02 8.465288e-04 2.359819e-01 1.909718e-02 7.943242e-04 2.173210e-01 -4.294590e-05 5.220467e-05
7              1.782638e-01 9.295844e-03 2.876516e-03 -4.128854e-02 9.367426e-03 2.837733e-03 2.195523e-01 -7.158124e-05 3.878302e-05
8              3.899978e-02 3.001981e-03 1.858257e-03 -1.824637e-01 3.088541e-03 1.833531e-03 2.214635e-01 -8.655989e-05 2.472536e-05
9              5.068771e-03 -1.652102e-04 3.786160e-04 -2.179704e-01 -8.037471e-05 3.654739e-04 2.230392e-01 -8.483551e-05 1.314213e-05
10             4.442824e-02 -8.577710e-04 -6.539166e-04 -1.798184e-01 -7.894824e-04 -6.601751e-04 2.242467e-01 -6.828861e-05 6.258524e-06
11             1.233818e-01 -8.429026e-05 -9.268491e-04 -1.016989e-01 -4.314593e-05 -9.316806e-04 2.250807e-01 -4.114433e-05 4.831511e-06
12             2.121496e-01 1.234914e-03 -4.622671e-04 -1.341852e-02 1.243486e-03 -4.703522e-04 2.255681e-01 -8.572297e-06 8.085101e-06
13             2.884843e-01 2.496012e-03 4.906242e-04 6.272461e-02 2.471896e-03 4.763765e-04 2.257597e-01 2.411596e-05 1.424770e-05
14             3.400442e-01 3.476900e-03 1.587547e-03 1.143264e-01 3.424102e-03 1.566292e-03 2.257178e-01 5.279825e-05 2.125536e-05
15             3.638151e-01 4.184973e-03 2.557316e-03 1.383116e-01 4.109907e-03 2.529984e-03 2.255035e-01 7.506677e-05 2.733118e-05
16             3.652580e-01 4.747981e-03 3.129136e-03 1.400897e-01 4.657766e-03 3.097823e-03 2.251683e-01 9.021473e-05 3.131338e-05
17             3.529887e-01 5.373800e-03 3.060298e-03 1.280926e-01 5.274546e-03 3.027555e-03 2.248961e-01 9.925422e-05 3.274341e-05
18             3.342605e-01 6.233863e-03 2.349017e-03 1.096855e-01 6.130009e-03 2.317128e-03 2.245750e-01 1.038540e-04 3.188955e-05
19             3.154179e-01 7.320343e-03 1.180165e-03 9.119933e-02 7.214158e-03 1.150876e-03 2.242186e-01 1.061847e-04 2.928919e-05
20             3.007248e-01 8.455755e-03 -1.552767e-04 7.689351e-02 8.347619e-03 -1.812932e-04 2.238313e-01 1.081362e-04 2.601650e-05
21             2.920210e-01 9.389766e-03 -1.362150e-03 6.860697e-02 9.278910e-03 -1.385152e-03 2.234140e-01 1.108561e-04 2.300185e-05
22             2.890273e-01 9.946710e-03 -2.260046e-03 6.606084e-02 9.832009e-03 -2.280866e-03 2.229665e-01 1.147004e-04 2.082014e-05
23             2.902927e-01 1.007167e-02 -2.787703e-03 6.780498e-02 9.952278e-03 -2.807550e-03 2.224877e-01 1.193947e-04 1.984670e-05
24             2.939107e-01 9.708369e-03 -2.880757e-03 7.202277e-02 9.583864e-03 -2.900862e-03 2.218879e-01 1.245053e-04 2.010547e-05
25             2.980938e-01 8.985081e-03 -2.599290e-03 7.674791e-02 8.855851e-03 -2.620520e-03 2.213459e-01 1.292308e-04 2.122997e-05
26             3.017089e-01 8.020644e-03 -2.032426e-03 8.092739e-02 7.887048e-03 -2.055192e-03 2.207815e-01 1.335961e-04 2.276574e-05
27             3.041488e-01 6.975727e-03 -1.309842e-03 8.394846e-02 6.838451e-03 -1.334292e-03 2.202003e-01 1.372768e-04 2.445049e-05
28             3.052353e-01 6.004584e-03 -5.657951e-04 8.562664e-02 5.864386e-03 -5.918309e-04 2.196086e-01 1.401977e-04 2.603578e-05
29             3.051102e-01 5.204250e-03 1.041062e-04 8.609781e-02 5.061844e-03 7.687682e-05 2.190124e-01 1.424066e-04 2.722936e-05
30             3.040714e-01 4.611771e-03 6.478345e-04 8.565454e-02 4.467778e-03 6.198504e-04 2.184169e-01 1.439921e-04 2.798405e-05
31             3.024605e-01 4.246538e-03 1.022495e-03 8.463365e-02 4.101360e-03 9.941226e-04 2.178269e-01 1.451780e-04 2.837198e-05
32             3.006052e-01 4.107643e-03 1.201062e-03 8.336006e-02 3.961554e-03 1.172675e-03 2.172452e-01 1.460887e-04 2.838629e-05
33             2.987694e-01 4.163984e-03 1.187075e-03 8.209531e-02 4.017108e-03 1.158937e-03 2.166741e-01 1.468762e-04 2.813732e-05
34             2.971248e-01 4.362130e-03 1.010438e-03 8.100935e-02 4.214438e-03 9.826809e-04 2.161154e-01 1.476925e-04 2.775683e-05
35             2.957529e-01 4.632474e-03 7.212811e-04 8.018352e-02 4.483939e-03 6.938829e-04 2.155694e-01 1.485351e-04 2.739814e-05
36             2.946665e-01 4.892343e-03 3.908782e-04 7.962964e-02 4.742988e-03 3.637671e-04 2.150369e-01 1.493544e-04 2.711104e-05
37             2.938298e-01 5.076265e-03 9.086130e-05 7.931241e-02 4.926203e-03 6.389569e-05 2.145174e-01 1.500619e-04 2.696561e-05
38             2.931799e-01 5.161786e-03 -1.395530e-04 7.916861e-02 5.011219e-03 -1.665360e-04 2.140113e-01 1.505673e-04 2.698297e-05
39             2.926485e-01 5.152061e-03 -2.879287e-04 7.912969e-02 5.001269e-03 -3.150645e-04 2.135188e-01 1.507925e-04 2.713583e-05
40             2.921792e-01 5.061707e-03 -3.557099e-04 7.913869e-02 4.911022e-03 -3.830836e-04 2.130405e-01 1.506842e-04 2.737373e-05
41             2.917324e-01 4.913517e-03 -3.556463e-04 7.915544e-02 4.763287e-03 -3.832801e-04 2.125770e-01 1.502305e-04 2.763381e-05
42             2.912847e-01 4.733196e-03 -3.078408e-04 7.915630e-02 4.583765e-03 -3.357078e-04 2.121284e-01 1.494309e-04 2.786708e-05
43             2.908277e-01 4.544279e-03 -2.341933e-04 7.913224e-02 4.395962e-03 -2.622344e-04 2.116954e-01 1.483166e-04 2.804109e-05
44             2.903642e-01 4.368673e-03 -1.550039e-04 7.908597e-02 4.221735e-03 -1.831218e-04 2.112783e-01 1.469387e-04 2.811790e-05
45             2.899016e-01 4.225774e-03 -8.762750e-05 7.902447e-02 4.080398e-03 -1.157286e-04 2.108771e-01 1.453756e-04 2.810113e-05
46             2.894445e-01 4.125835e-03 -4.394317e-05 7.895255e-02 3.982145e-03 -7.194537e-05 2.104920e-01 1.436904e-04 2.800221e-05
47             2.889967e-01 4.067906e-03 -2.814213e-05 7.887390e-02 3.925968e-03 -5.598767e-05 2.101228e-01 1.419372e-04 2.784554e-05
48             2.885621e-01 4.044037e-03 -3.785934e-05 7.879276e-02 3.903882e-03 -6.551750e-05 2.097694e-01 1.401552e-04 2.765816e-05
49             2.881446e-01 4.044446e-03 -6.682551e-05 7.871329e-02 3.906080e-03 -9.429693e-05 2.094313e-01 1.383661e-04 2.747142e-05
50             2.877466e-01 4.059827e-03 -1.070361e-04 7.863812e-02 3.923262e-03 -1.343509e-04 2.091085e-01 1.365648e-04 2.731479e-05
51             2.873686e-01 4.081517e-03 -1.501478e-04 7.856790e-02 3.946773e-03 -1.773401e-04 2.088007e-01 1.347441e-04 2.719229e-05
52             2.870100e-01 4.101817e-03 -1.889720e-04 7.850271e-02 3.968932e-03 -2.160786e-04 2.085073e-01 1.328855e-04 2.710663e-05
53             2.866712e-01 4.115801e-03 -2.188876e-04 7.844314e-02 3.984837e-03 -2.459429e-04 2.082281e-01 1.309642e-04 2.705534e-05
54             2.862940e-01 4.116693e-03 -2.394690e-04 7.835113e-02 3.987745e-03 -2.664983e-04 2.079429e-01 1.289486e-04 2.702933e-05
55             2.859158e-01 4.109041e-03 -2.510532e-04 7.824343e-02 3.982218e-03 -2.780718e-04 2.076723e-01 1.268227e-04 2.701861e-05
56             2.855759e-01 4.101760e-03 -2.539215e-04 7.817079e-02 3.977189e-03 -2.809315e-04 2.074051e-01 1.245710e-04 2.701004e-05
57             2.852816e-01 4.096321e-03 -2.512363e-04 7.812763e-02 3.974054e-03 -2.782301e-04 2.071540e-01 1.222671e-04 2.699376e-05
58             2.850246e-01 4.093894e-03 -2.466825e-04 7.810614e-02 3.973978e-03 -2.736414e-04 2.069185e-01 1.199164e-04 2.695892e-05
59             2.847964e-01 4.095417e-03 -2.437737e-04 7.809852e-02 3.977864e-03 -2.706778e-04 2.066979e-01 1.175532e-04 2.690414e-05
60             2.845885e-01 4.101397e-03 -2.448894e-04 7.809699e-02 3.986185e-03 -2.717308e-04 2.064915e-01 1.152118e-04 2.684145e-05
61             2.843447e-01 4.109909e-03 -2.523098e-04 7.805917e-02 3.997008e-03 -2.790797e-04 2.062855e-01 1.129017e-04 2.676996e-05
62             2.840902e-01 4.121663e-03 -2.636522e-04 7.799697e-02 4.011045e-03 -2.903353e-04 2.060932e-01 1.106171e-04 2.668310e-05
63             2.838380e-01 4.136966e-03 -2.769677e-04 7.792394e-02 4.028581e-03 -3.035626e-04 2.059140e-01 1.083851e-04 2.659489e-05
64             2.835979e-01 4.156409e-03 -2.913939e-04 7.785049e-02 4.050163e-03 -3.179060e-04 2.057475e-01 1.062461e-04 2.651216e-05
65             2.833762e-01 4.180334e-03 -3.062691e-04 7.778352e-02 4.076128e-03 -3.327084e-04 2.055927e-01 1.042052e-04 2.643930e-05
66             2.831763e-01 4.208571e-03 -3.208598e-04 7.772709e-02 4.106299e-03 -3.472324e-04 2.054492e-01 1.022724e-04 2.637262e-05
67             2.829989e-01 4.240752e-03 -3.345978e-04 7.768267e-02 4.140305e-03 -3.609113e-04 2.053163e-01 1.004467e-04 2.631349e-05
68             2.828432e-01 4.276704e-03 -3.472229e-04 7.764996e-02 4.177976e-03 -3.734811e-04 2.051932e-01 9.872789e-05 2.625824e-05
69             2.827071e-01 4.315816e-03 -3.583922e-04 7.762766e-02 4.218696e-03 -3.845985e-04 2.050795e-01 9.711965e-05 2.620629e-05
70             2.825877e-01 4.355524e-03 -3.673079e-04 7.761326e-02 4.259902e-03 -3.934655e-04 2.049745e-01 9.562256e-05 2.615755e-05
71             2.825107e-01 4.391056e-03 -3.723161e-04 7.762643e-02 4.296827e-03 -3.984281e-04 2.048843e-01 9.422912e-05 2.611201e-05
72             2.824535e-01 4.422235e-03 -3.747006e-04 7.765241e-02 4.329299e-03 -4.007677e-04 2.048011e-01 9.293605e-05 2.606705e-05
73             2.824039e-01 4.450375e-03 -3.758740e-04 7.767938e-02 4.358643e-03 -4.018936e-04 2.047245e-01 9.173176e-05 2.601960e-05
74             2.823537e-01 4.476972e-03 -3.768538e-04 7.769987e-02 4.386366e-03 -4.028237e-04 2.046539e-01 9.060602e-05 2.596988e-05
75             2.822988e-01 4.503070e-03 -3.781738e-04 7.771004e-02 4.413518e-03 -4.040934e-04 2.045888e-01 8.955226e-05 2.591962e-05
76             2.822379e-01 4.529152e-03 -3.799806e-04 7.770893e-02 4.440586e-03 -4.058491e-04 2.045289e-01 8.856583e-05 2.586848e-05
77             2.821715e-01 4.555305e-03 -3.821744e-04 7.769766e-02 4.467663e-03 -4.079938e-04 2.044738e-01 8.764124e-05 2.581932e-05
78             2.821018e-01 4.581470e-03 -3.845514e-04 7.767864e-02 4.494696e-03 -4.103249e-04 2.044232e-01 8.677414e-05 2.577344e-05
79             2.820313e-01 4.607538e-03 -3.868880e-04 7.765471e-02 4.521573e-03 -4.126187e-04 2.043766e-01 8.596496e-05 2.573071e-05
80             2.819626e-01 4.633009e-03 -3.889205e-04 7.762873e-02 4.547795e-03 -4.146125e-04 2.043339e-01 8.521368e-05 2.569202e-05
81             2.818980e-01 4.656787e-03 -3.903390e-04 7.760341e-02 4.572271e-03 -4.159943e-04 2.042946e-01 8.451636e-05 2.565535e-05
82             2.818394e-01 4.677888e-03 -3.909208e-04 7.758079e-02 4.594017e-03 -4.165410e-04 2.042586e-01 8.387108e-05 2.562016e-05
83             2.817872e-01 4.696100e-03 -3.906558e-04 7.756162e-02 4.612825e-03 -4.162425e-04 2.042256e-01 8.327463e-05 2.558674e-05
84             2.817408e-01 4.711909e-03 -3.897089e-04 7.754550e-02 4.629183e-03 -4.152640e-04 2.041953e-01 8.272602e-05 2.555517e-05
85             2.816991e-01 4.725980e-03 -3.882961e-04 7.753156e-02 4.643754e-03 -4.138207e-04 2.041676e-01 8.222601e-05 2.552459e-05
86             2.816610e-01 4.738793e-03 -3.865992e-04 7.751884e-02 4.657020e-03 -4.120949e-04 2.041422e-01 8.177288e-05 2.549568e-05
87             2.816255e-01 4.750603e-03 -3.847469e-04 7.750653e-02 4.669238e-03 -4.102147e-04 2.041190e-01 8.136526e-05 2.546778e-05
88             2.815918e-01 4.761530e-03 -3.828175e-04 7.749409e-02 4.680529e-03 -4.082594e-04 2.040977e-01 8.100136e-05 2.544187e-05
89             2.815595e-01 4.771644e-03 -3.808541e-04 7.748125e-02 4.690963e-03 -4.062711e-04 2.040783e-01 8.068068e-05 2.541704e-05
90             2.815285e-01 4.780996e-03 -3.788715e-04 7.746801e-02 4.700594e-03 -4.042643e-04 2.040605e-01 8.040139e-05 2.539278e-05
91             2.814989e-01 4.789568e-03 -3.768580e-04 7.745459e-02 4.709407e-03 -4.022276e-04 2.040443e-01 8.016110e-05 2.536957e-05
92             2.814709e-01 4.797198e-03 -3.747855e-04 7.744138e-02 4.717240e-03 -4.001327e-04 2.040295e-01 7.995732e-05 2.534715e-05
93             2.814448e-01 4.803685e-03 -3.726330e-04 7.742882e-02 4.723898e-03 -3.979577e-04 2.040160e-01 7.978725e-05 2.532477e-05
94             2.814208e-01 4.809015e-03 -3.704077e-04 7.741711e-02 4.729367e-03 -3.957101e-04 2.040037e-01 7.964807e-05 2.530240e-05
95             2.813987e-01 4.813387e-03 -3.681413e-04 7.740624e-02 4.733850e-03 -3.934217e-04 2.039925e-01 7.953703e-05 2.528043e-05
96             2.813783e-01 4.817092e-03 -3.658697e-04 7.739601e-02 4.737641e-03 -3.911287e-04 2.039823e-01 7.945141e-05 2.525898e-05
97             2.813592e-01 4.820384e-03 -3.636233e-04 7.738621e-02 4.740995e-03 -3.888612e-04 2.039730e-01 7.938885e-05 2.523793e-05
98             2.813412e-01 4.823428e-03 -3.614259e-04 7.737666e-02 4.744081e-03 -3.866434e-04 2.039645e-01 7.934673e-05 2.521753e-05
99             2.813241e-01 4.826314e-03 -3.592959e-04 7.736724e-02 4.746991e-03 -3.844937e-04 2.039568e-01 7.932250e-05 2.519780e-05
100            2.813077e-01 4.829078e-03 -3.572462e-04 7.735791e-02 4.749765e-03 -3.824249e-04 2.039498e-01 7.931373e-05 2.517875e-05
101            2.812922e-01 4.831732e-03 -3.552835e-04 7.734866e-02 4.752414e-03 -3.804439e-04 2.039435e-01 7.931781e-05 2.516039e-05
102            2.812773e-01 4.834271e-03 -3.534099e-04 7.733957e-02 4.754939e-03 -3.785527e-04 2.039378e-01 7.933223e-05 2.514278e-05
103            2.812632e-01 4.836685e-03 -3.516249e-04 7.733071e-02 4.757330e-03 -3.767509e-04 2.039325e-01 7.935452e-05 2.512595e-05
104            2.812500e-01 4.838954e-03 -3.499290e-04 7.732219e-02 4.759572e-03 -3.750389e-04 2.039278e-01 7.938244e-05 2.510991e-05
105            2.812377e-01 4.841060e-03 -3.483245e-04 7.731415e-02 4.761646e-03 -3.734191e-04 2.039236e-01 7.941400e-05 2.509460e-05
106            2.812264e-01 4.842996e-03 -3.468138e-04 7.730665e-02 4.763549e-03 -3.718938e-04 2.039197e-01 7.944726e-05 2.508007e-05
107            2.812159e-01 4.844772e-03 -3.453966e-04 7.729972e-02 4.765291e-03 -3.704629e-04 2.039162e-01 7.948067e-05 2.506630e-05
108            2.812064e-01 4.846409e-03 -3.440701e-04 7.729329e-02 4.766896e-03 -3.691233e-04 2.039131e-01 7.951302e-05 2.505327e-05
109            2.811976e-01 4.847934e-03 -3.428295e-04 7.728729e-02 4.768390e-03 -3.678705e-04 2.039103e-01 7.954327e-05 2.504099e-05
110            2.811894e-01 4.849365e-03 -3.416706e-04 7.728164e-02 4.769795e-03 -3.667001e-04 2.039077e-01 7.957073e-05 2.502946e-05
111            2.811817e-01 4.850718e-03 -3.405901e-04 7.727628e-02 4.771123e-03 -3.656088e-04 2.039055e-01 7.959495e-05 2.501866e-05
112            2.811747e-01 4.851999e-03 -3.395854e-04 7.727119e-02 4.772383e-03 -3.645939e-04 2.039035e-01 7.961623e-05 2.500844e-05
113            2.811681e-01 4.853214e-03 -3.386530e-04 7.726637e-02 4.773580e-03 -3.636520e-04 2.039017e-01 7.963390e-05 2.499899e-05
114            2.811620e-01 4.854369e-03 -3.377881e-04 7.726184e-02 4.774721e-03 -3.627784e-04 2.039001e-01 7.964800e-05 2.499026e-05
115            2.811563e-01 4.855468e-03 -3.369866e-04 7.725761e-02 4.775810e-03 -3.619688e-04 2.038987e-01 7.965876e-05 2.498221e-05
116            2.811511e-01 4.856517e-03 -3.362462e-04 7.725374e-02 4.776851e-03 -3.612210e-04 2.038974e-01 7.966646e-05 2.497484e-05
117            2.811465e-01 4.857513e-03 -3.355703e-04 7.725027e-02 4.777841e-03 -3.605384e-04 2.038962e-01 7.967149e-05 2.496811e-05
118            2.811425e-01 4.858452e-03 -3.349638e-04 7.724726e-02 4.778777e-03 -3.599258e-04 2.038952e-01 7.967430e-05 2.496201e-05
119            2.811390e-01 4.859332e-03 -3.344283e-04 7.724470e-02 4.779657e-03 -3.593848e-04 2.038943e-01 7.967535e-05 2.495650e-05
120            2.811360e-01 4.860164e-03 -3.339569e-04 7.724255e-02 4.780489e-03 -3.589084e-04 2.038934e-01 7.967505e-05 2.495157e-05
121            2.811334e-01 4.860962e-03 -3.335388e-04 7.724072e-02 4.781288e-03 -3.584860e-04 2.038927e-01 7.967384e-05 2.494717e-05
122            2.811312e-01 4.861741e-03 -3.331629e-04 7.723916e-02 4.782069e-03 -3.581062e-04 2.038920e-01 7.967214e-05 2.494328e-05
123            2.811292e-01 4.862514e-03 -3.328196e-04 7.723782e-02 4.782844e-03 -3.577595e-04 2.038914e-01 7.967029e-05 2.493989e-05
124            2.811275e-01 4.863287e-03 -3.325040e-04 7.723667e-02 4.783618e-03 -3.574410e-04 2.038908e-01 7.966864e-05 2.493694e-05
125            2.811260e-01 4.864061e-03 -3.322139e-04 7.723568e-02 4.784394e-03 -3.571483e-04 2.038903e-01 7.966743e-05 2.493440e-05
126            2.811247e-01 4.864838e-03 -3.319471e-04 7.723485e-02 4.785171e-03 -3.568794e-04 2.038899e-01 7.966686e-05 2.493226e-05
127            2.811237e-01 4.865616e-03 -3.317039e-04 7.723417e-02 4.785949e-03 -3.566344e-04 2.038895e-01 7.966711e-05 2.493046e-05
128            2.811227e-01 4.866391e-03 -3.314865e-04 7.723364e-02 4.786723e-03 -3.564155e-04 2.038891e-01 7.966824e-05 2.492896e-05
129            2.811220e-01 4.867150e-03 -3.312984e-04 7.723327e-02 4.787479e-03 -3.562262e-04 2.038888e-01 7.967031e-05 2.492773e-05
130            2.811215e-01 4.867874e-03 -3.311410e-04 7.723304e-02 4.788201e-03 -3.560677e-04 2.038884e-01 7.967327e-05 2.492674e-05
131            2.811211e-01 4.868555e-03 -3.310104e-04 7.723293e-02 4.788878e-03 -3.559364e-04 2.038882e-01 7.967709e-05 2.492594e-05
132            2.811208e-01 4.869193e-03 -3.308999e-04 7.723291e-02 4.789512e-03 -3.558253e-04 2.038879e-01 7.968166e-05 2.492534e-05
133            2.811206e-01 4.869797e-03 -3.308048e-04 7.723296e-02 4.790110e-03 -3.557296e-04 2.038876e-01 7.968690e-05 2.492488e-05
134            2.811204e-01 4.870375e-03 -3.307225e-04 7.723303e-02 4.790682e-03 -3.556471e-04 2.038874e-01 7.969270e-05 2.492454e-05
135            2.811203e-01 4.870933e-03 -3.306519e-04 7.723312e-02 4.791234e-03 -3.555762e-04 2.038872e-01 7.969894e-05 2.492429e-05
136            2.811202e-01 4.871474e-03 -3.305920e-04 7.723321e-02 4.791768e-03 -3.555161e-04 2.038870e-01 7.970553e-05 2.492412e-05
