/*--------------------------------*- C++ -*----------------------------------*\
| =========                 |                                                 |
| \\      /  F ield         | OpenFOAM: The Open Source CFD Toolbox           |
|  \\    /   O peration     | Version:  2512                                  |
|   \\  /    A nd           | Website:  www.openfoam.com                      |
|    \\/     M anipulation  |                                                 |
\*---------------------------------------------------------------------------*/
FoamFile
{
    version     2.0;
    format      ascii;
    arch        "LSB;label=32;scalar=64";
    class       volScalarField;
    location    "152";
    object      p;
}
// * * * * * * * * * * * * * * * * * * * * * * * * * * * * * * * * * * * * * //

dimensions      [0 2 -2 0 0 0 0];

internalField   nonuniform List<scalar> 
229904
(
5.79326e-05
5.78421e-05
5.76112e-05
5.72411e-05
5.67259e-05
5.60454e-05
5.51711e-05
5.40688e-05
5.26983e-05
5.10116e-05
4.89532e-05
4.64601e-05
4.34629e-05
3.9887e-05
3.56554e-05
3.06931e-05
2.49328e-05
1.83227e-05
1.08365e-05
2.48465e-06
-6.67327e-06
-1.65164e-05
-2.68534e-05
-3.74179e-05
-4.78724e-05
-5.7823e-05
-6.68455e-05
-7.45229e-05
-8.049e-05
-8.44781e-05
-8.63505e-05
-8.61219e-05
-8.39536e-05
-8.01284e-05
-7.50085e-05
-6.89876e-05
-6.24476e-05
-5.57268e-05
-4.91011e-05
-4.27785e-05
-3.69015e-05
-3.15557e-05
-2.67804e-05
-2.25792e-05
-1.8931e-05
-1.57977e-05
-1.31323e-05
-1.08831e-05
-8.99839e-06
-7.42849e-06
-6.1274e-06
-5.05361e-06
-4.17048e-06
-3.44612e-06
-2.85318e-06
-2.36844e-06
-1.97238e-06
-1.64868e-06
-1.38386e-06
-1.16676e-06
-9.88284e-07
-8.40984e-07
-7.18822e-07
-6.16924e-07
-5.31355e-07
-4.58957e-07
-3.97199e-07
-3.44063e-07
-2.97941e-07
-2.57562e-07
-2.21912e-07
-1.90181e-07
-1.61705e-07
-1.35933e-07
-1.1238e-07
-9.06008e-08
-7.01601e-08
-5.065e-08
-3.16223e-08
-1.38057e-08
5.79597e-05
5.78699e-05
5.76413e-05
5.72746e-05
5.67642e-05
5.60898e-05
5.5223e-05
5.413e-05
5.27702e-05
5.1096e-05
4.90517e-05
4.65743e-05
4.35937e-05
4.00349e-05
3.58199e-05
3.08723e-05
2.51231e-05
1.85184e-05
1.10292e-05
2.66335e-06
-6.52214e-06
-1.64084e-05
-2.68048e-05
-3.7444e-05
-4.79853e-05
-5.80286e-05
-6.71416e-05
-7.48978e-05
-8.09224e-05
-8.49392e-05
-8.6808e-05
-8.65443e-05
-8.43153e-05
-8.04124e-05
-7.52079e-05
-6.91045e-05
-6.2491e-05
-5.57097e-05
-4.9038e-05
-4.26833e-05
-3.67867e-05
-3.14315e-05
-2.66547e-05
-2.24577e-05
-1.88173e-05
-1.56942e-05
-1.30398e-05
-1.0802e-05
-8.92817e-06
-7.36841e-06
-6.07649e-06
-5.01083e-06
-4.13479e-06
-3.41653e-06
-2.82877e-06
-2.3484e-06
-1.95599e-06
-1.63534e-06
-1.37302e-06
-1.158e-06
-9.8121e-07
-8.35293e-07
-7.1426e-07
-6.1328e-07
-5.28458e-07
-4.56667e-07
-3.95401e-07
-3.42662e-07
-2.9686e-07
-2.56737e-07
-2.21291e-07
-1.89721e-07
-1.6137e-07
-1.35692e-07
-1.12208e-07
-9.04778e-08
-7.00732e-08
-5.05936e-08
-3.16025e-08
-1.38059e-08
5.80129e-05
5.79249e-05
5.77006e-05
5.73408e-05
5.68398e-05
5.61774e-05
5.53256e-05
5.42507e-05
5.29123e-05
5.12628e-05
4.92465e-05
4.68e-05
4.38524e-05
4.03275e-05
3.61455e-05
3.12274e-05
2.55007e-05
1.8907e-05
1.14125e-05
3.01942e-06
-6.22019e-06
-1.61915e-05
-2.67055e-05
-3.7493e-05
-4.82067e-05
-5.84349e-05
-6.77288e-05
-7.56424e-05
-8.17822e-05
-8.58568e-05
-8.77185e-05
-8.73849e-05
-8.50344e-05
-8.09764e-05
-7.56031e-05
-6.93354e-05
-6.25759e-05
-5.56745e-05
-4.89116e-05
-4.24936e-05
-3.65584e-05
-3.11849e-05
-2.64052e-05
-2.22166e-05
-1.8592e-05
-1.5489e-05
-1.28568e-05
-1.06413e-05
-8.78915e-06
-7.24947e-06
-5.97571e-06
-4.92616e-06
-4.06414e-06
-3.35793e-06
-2.78043e-06
-2.3087e-06
-1.92351e-06
-1.60886e-06
-1.3515e-06
-1.14055e-06
-9.67097e-07
-8.239e-07
-7.05084e-07
-6.05905e-07
-5.22545e-07
-4.51939e-07
-3.91631e-07
-3.39665e-07
-2.94485e-07
-2.54861e-07
-2.19812e-07
-1.88558e-07
-1.60454e-07
-1.34967e-07
-1.11625e-07
-8.99997e-08
-6.96759e-08
-5.02681e-08
-3.13575e-08
-1.36544e-08
5.80913e-05
5.80058e-05
5.77879e-05
5.74382e-05
5.6951e-05
5.63064e-05
5.54767e-05
5.44284e-05
5.31216e-05
5.15087e-05
4.95338e-05
4.7133e-05
4.42344e-05
4.076e-05
3.66273e-05
3.17534e-05
2.60606e-05
1.94842e-05
1.19829e-05
3.55076e-06
-5.76794e-06
-1.58645e-05
-2.65526e-05
-3.75604e-05
-4.85311e-05
-5.90355e-05
-6.86003e-05
-7.67504e-05
-8.30633e-05
-8.72247e-05
-8.90755e-05
-8.86364e-05
-8.61031e-05
-8.18121e-05
-7.61859e-05
-6.96731e-05
-6.26962e-05
-5.56169e-05
-4.87195e-05
-4.22087e-05
-3.62173e-05
-3.08176e-05
-2.60347e-05
-2.18592e-05
-1.82585e-05
-1.51857e-05
-1.25864e-05
-1.04043e-05
-8.58415e-06
-7.0742e-06
-5.8273e-06
-4.80151e-06
-3.96019e-06
-3.27177e-06
-2.70938e-06
-2.25038e-06
-1.87583e-06
-1.57001e-06
-1.31995e-06
-1.11501e-06
-9.46474e-07
-8.07295e-07
-6.91754e-07
-5.95242e-07
-5.14053e-07
-4.4521e-07
-3.86332e-07
-3.35523e-07
-2.91277e-07
-2.52406e-07
-2.17962e-07
-1.8719e-07
-1.59467e-07
-1.34273e-07
-1.11151e-07
-8.96867e-08
-6.94819e-08
-5.01717e-08
-3.13507e-08
-1.3716e-08
5.8193e-05
5.81107e-05
5.79011e-05
5.75646e-05
5.70952e-05
5.64737e-05
5.56727e-05
5.46592e-05
5.33935e-05
5.18283e-05
4.99074e-05
4.75664e-05
4.47321e-05
4.13241e-05
3.72565e-05
3.24413e-05
2.67943e-05
2.02423e-05
1.2734e-05
4.25292e-06
-5.16732e-06
-1.54263e-05
-2.63418e-05
-3.7639e-05
-4.89487e-05
-5.98189e-05
-6.97437e-05
-7.82089e-05
-8.47529e-05
-8.90302e-05
-9.08661e-05
-9.02855e-05
-8.75077e-05
-8.29059e-05
-7.69439e-05
-7.01069e-05
-6.28441e-05
-5.55321e-05
-4.84597e-05
-4.18292e-05
-3.57662e-05
-3.03339e-05
-2.55483e-05
-2.13912e-05
-1.78226e-05
-1.47898e-05
-1.2234e-05
-1.00957e-05
-8.31756e-06
-6.84645e-06
-5.63457e-06
-4.63973e-06
-3.82532e-06
-3.16e-06
-2.61722e-06
-2.17472e-06
-1.81395e-06
-1.51958e-06
-1.27896e-06
-1.08177e-06
-9.19586e-07
-7.85586e-07
-6.74261e-07
-5.81178e-07
-5.02772e-07
-4.36186e-07
-3.79134e-07
-3.298e-07
-2.86743e-07
-2.48828e-07
-2.15153e-07
-1.84996e-07
-1.57761e-07
-1.32947e-07
-1.10114e-07
-8.88659e-08
-6.88274e-08
-4.96593e-08
-3.0982e-08
-1.35046e-08
5.83155e-05
5.82372e-05
5.80376e-05
5.77169e-05
5.72692e-05
5.66756e-05
5.59093e-05
5.49379e-05
5.37221e-05
5.22147e-05
5.03595e-05
4.80914e-05
4.53357e-05
4.20092e-05
3.80218e-05
3.32798e-05
2.76906e-05
2.1171e-05
1.36573e-05
5.11976e-06
-4.42119e-06
-1.4876e-05
-2.6068e-05
-3.77196e-05
-4.94468e-05
-6.077e-05
-7.11423e-05
-8.00006e-05
-8.68336e-05
-9.1256e-05
-9.30728e-05
-9.23144e-05
-8.92302e-05
-8.42405e-05
-7.78613e-05
-7.06238e-05
-6.30101e-05
-5.54143e-05
-4.81303e-05
-4.13563e-05
-3.52087e-05
-2.97395e-05
-2.49528e-05
-2.08199e-05
-1.72919e-05
-1.43088e-05
-1.18066e-05
-9.72192e-06
-7.99498e-06
-6.57116e-06
-5.40183e-06
-4.44453e-06
-3.66272e-06
-3.02536e-06
-2.5063e-06
-2.08375e-06
-1.73965e-06
-1.4591e-06
-1.2299e-06
-1.04209e-06
-8.87581e-07
-7.59851e-07
-6.53636e-07
-5.64711e-07
-4.89685e-07
-4.2584e-07
-3.71007e-07
-3.23463e-07
-2.81848e-07
-2.45092e-07
-2.12346e-07
-1.82928e-07
-1.56274e-07
-1.31906e-07
-1.09405e-07
-8.83948e-08
-6.85278e-08
-4.94924e-08
-3.09302e-08
-1.35482e-08
5.8456e-05
5.83822e-05
5.81941e-05
5.78916e-05
5.74689e-05
5.69074e-05
5.6181e-05
5.52581e-05
5.40998e-05
5.26593e-05
5.08804e-05
4.86969e-05
4.60328e-05
4.28017e-05
3.8909e-05
3.42539e-05
2.87348e-05
2.22563e-05
1.47406e-05
6.14204e-06
-3.5349e-06
-1.42141e-05
-2.57265e-05
-3.77919e-05
-5.00104e-05
-6.18695e-05
-7.27741e-05
-8.2102e-05
-8.92812e-05
-9.38775e-05
-9.56708e-05
-9.46981e-05
-9.1246e-05
-8.57926e-05
-7.89176e-05
-7.12074e-05
-6.31826e-05
-5.52572e-05
-4.77296e-05
-4.07925e-05
-3.45506e-05
-2.90421e-05
-2.42573e-05
-2.01551e-05
-1.6676e-05
-1.37519e-05
-1.13127e-05
-9.29074e-06
-7.62342e-06
-6.25442e-06
-5.1343e-06
-4.22032e-06
-3.47607e-06
-2.87084e-06
-2.37902e-06
-1.97935e-06
-1.65433e-06
-1.38959e-06
-1.17343e-06
-9.96321e-07
-8.50565e-07
-7.29968e-07
-6.29557e-07
-5.4535e-07
-4.74152e-07
-4.13409e-07
-3.61082e-07
-3.15561e-07
-2.75576e-07
-2.40134e-07
-2.08449e-07
-1.79885e-07
-1.53913e-07
-1.30085e-07
-1.08002e-07
-8.7314e-08
-6.76993e-08
-4.88781e-08
-3.0522e-08
-1.33499e-08
5.86112e-05
5.85424e-05
5.83671e-05
5.80848e-05
5.76896e-05
5.71636e-05
5.64816e-05
5.56126e-05
5.45183e-05
5.31524e-05
5.14585e-05
4.937e-05
4.68088e-05
4.36857e-05
3.99006e-05
3.53455e-05
2.99084e-05
2.34806e-05
1.59682e-05
7.30715e-06
-2.51661e-06
-1.34432e-05
-2.53132e-05
-3.78451e-05
-5.06216e-05
-6.30938e-05
-7.46111e-05
-8.44821e-05
-9.20633e-05
-9.68617e-05
-9.86271e-05
-9.74042e-05
-9.35241e-05
-8.7534e-05
-8.00889e-05
-7.18395e-05
-6.33497e-05
-5.50552e-05
-4.72579e-05
-4.01424e-05
-3.37999e-05
-2.82521e-05
-2.34735e-05
-1.94088e-05
-1.59869e-05
-1.31305e-05
-1.07628e-05
-8.8116e-06
-7.2112e-06
-5.90355e-06
-4.83833e-06
-3.97259e-06
-3.27007e-06
-2.70054e-06
-2.23893e-06
-1.86462e-06
-1.56073e-06
-1.31352e-06
-1.1118e-06
-9.4655e-07
-8.10488e-07
-6.97796e-07
-6.0382e-07
-5.24842e-07
-4.57884e-07
-4.00571e-07
-3.51008e-07
-3.07706e-07
-2.69499e-07
-2.35479e-07
-2.04926e-07
-1.77261e-07
-1.51994e-07
-1.28704e-07
-1.07021e-07
-8.66182e-08
-6.72049e-08
-4.85334e-08
-3.03059e-08
-1.32617e-08
5.87774e-05
5.8714e-05
5.85523e-05
5.82917e-05
5.79261e-05
5.74384e-05
5.68041e-05
5.59931e-05
5.49679e-05
5.36826e-05
5.2081e-05
5.00957e-05
4.7647e-05
4.46423e-05
4.09763e-05
3.6533e-05
3.11893e-05
2.48223e-05
1.732e-05
8.59814e-06
-1.37846e-06
-1.25688e-05
-2.48259e-05
-3.78682e-05
-5.12609e-05
-6.44155e-05
-7.66193e-05
-8.71022e-05
-9.51381e-05
-0.000100166
-0.000101899
-0.000100391
-9.60257e-05
-8.94306e-05
-8.13475e-05
-7.25e-05
-6.34996e-05
-5.4804e-05
-4.67172e-05
-3.94135e-05
-3.29676e-05
-2.73827e-05
-2.26157e-05
-1.85956e-05
-1.52385e-05
-1.24575e-05
-1.01688e-05
-8.29501e-06
-6.7675e-06
-5.52638e-06
-4.52051e-06
-3.70676e-06
-3.04914e-06
-2.51792e-06
-2.08867e-06
-1.74149e-06
-1.4602e-06
-1.23168e-06
-1.04535e-06
-8.92709e-07
-7.66952e-07
-6.62658e-07
-5.75516e-07
-5.02092e-07
-4.39643e-07
-3.8598e-07
-3.39368e-07
-2.98448e-07
-2.62163e-07
-2.29699e-07
-2.00409e-07
-1.7377e-07
-1.49335e-07
-1.26715e-07
-1.05565e-07
-8.55843e-08
-6.6511e-08
-4.8127e-08
-3.01563e-08
-1.33195e-08
5.89508e-05
5.8893e-05
5.87456e-05
5.85075e-05
5.8173e-05
5.77253e-05
5.71409e-05
5.63908e-05
5.54382e-05
5.42378e-05
5.27336e-05
5.08576e-05
4.85286e-05
4.56505e-05
4.21129e-05
3.77915e-05
3.25517e-05
2.62552e-05
1.87712e-05
9.99323e-06
-1.37263e-07
-1.16009e-05
-2.42654e-05
-3.78518e-05
-5.19077e-05
-6.5803e-05
-7.87576e-05
-8.99141e-05
-9.84528e-05
-0.000103734
-0.000105431
-0.000103607
-9.87041e-05
-9.14428e-05
-8.26629e-05
-7.31683e-05
-6.36215e-05
-5.45017e-05
-4.61129e-05
-3.86165e-05
-3.2068e-05
-2.64505e-05
-2.17011e-05
-1.77325e-05
-1.44473e-05
-1.17483e-05
-9.54433e-06
-7.75323e-06
-6.30309e-06
-5.13234e-06
-4.18905e-06
-3.42999e-06
-2.81951e-06
-2.32845e-06
-1.93309e-06
-1.6143e-06
-1.35662e-06
-1.14763e-06
-9.7738e-07
-8.37909e-07
-7.22899e-07
-6.27355e-07
-5.47321e-07
-4.79661e-07
-4.21872e-07
-3.71962e-07
-3.28358e-07
-2.89837e-07
-2.55461e-07
-2.24511e-07
-1.96422e-07
-1.70727e-07
-1.47026e-07
-1.24963e-07
-1.04219e-07
-8.4524e-08
-6.56444e-08
-4.73973e-08
-2.955e-08
-1.28892e-08
5.91271e-05
5.90751e-05
5.89422e-05
5.87272e-05
5.84242e-05
5.80173e-05
5.74841e-05
5.67962e-05
5.5918e-05
5.48048e-05
5.34009e-05
5.16379e-05
4.9433e-05
4.66872e-05
4.32846e-05
3.90928e-05
3.39655e-05
2.77488e-05
2.0292e-05
1.14652e-05
1.18468e-06
-1.05542e-05
-2.36368e-05
-3.77884e-05
-5.2541e-05
-6.72216e-05
-8.09786e-05
-9.28597e-05
-0.000101942
-0.0001075
-0.000109157
-0.000106989
-0.000101504
-9.35255e-05
-8.40019e-05
-7.3824e-05
-6.37068e-05
-5.41498e-05
-4.54543e-05
-3.77659e-05
-3.11192e-05
-2.54749e-05
-2.07498e-05
-1.68389e-05
-1.36311e-05
-1.10189e-05
-8.90381e-06
-7.19864e-06
-5.82851e-06
-4.73018e-06
-3.85107e-06
-3.14795e-06
-2.58555e-06
-2.13536e-06
-1.77444e-06
-1.48444e-06
-1.25069e-06
-1.06148e-06
-9.07483e-07
-7.81327e-07
-6.77189e-07
-5.90504e-07
-5.17683e-07
-4.55891e-07
-4.02869e-07
-3.56823e-07
-3.16344e-07
-2.80349e-07
-2.4802e-07
-2.18736e-07
-1.92009e-07
-1.67435e-07
-1.44653e-07
-1.23339e-07
-1.03204e-07
-8.39993e-08
-6.5521e-08
-4.76103e-08
-3.00364e-08
-1.35038e-08
5.93023e-05
5.9256e-05
5.91375e-05
5.89454e-05
5.86739e-05
5.83076e-05
5.78253e-05
5.71996e-05
5.63958e-05
5.537e-05
5.40669e-05
5.24179e-05
5.03387e-05
4.77276e-05
4.44636e-05
4.04062e-05
3.53977e-05
2.92685e-05
2.18477e-05
1.29814e-05
2.55915e-06
-9.44942e-06
-2.29497e-05
-3.76742e-05
-5.31407e-05
-6.86338e-05
-8.32281e-05
-9.5871e-05
-0.000105529
-0.000111379
-0.000112995
-0.000110461
-0.000104361
-9.56287e-05
-8.53303e-05
-7.44478e-05
-6.37498e-05
-5.37536e-05
-4.47548e-05
-3.68808e-05
-3.01432e-05
-2.44792e-05
-1.97846e-05
-1.59366e-05
-1.28103e-05
-1.02879e-05
-8.26368e-06
-6.64582e-06
-5.35653e-06
-4.33109e-06
-3.51638e-06
-2.86923e-06
-2.35485e-06
-1.94542e-06
-1.61879e-06
-1.35743e-06
-1.14744e-06
-9.7784e-07
-8.3995e-07
-7.26953e-07
-6.33531e-07
-5.55549e-07
-4.89781e-07
-4.3369e-07
-3.85257e-07
-3.42885e-07
-3.05329e-07
-2.71649e-07
-2.41146e-07
-2.13301e-07
-1.87705e-07
-1.64013e-07
-1.41906e-07
-1.21094e-07
-1.01313e-07
-8.23449e-08
-6.4015e-08
-4.62018e-08
-2.87382e-08
-1.24707e-08
5.94722e-05
5.94314e-05
5.93269e-05
5.91571e-05
5.8916e-05
5.85892e-05
5.81564e-05
5.75911e-05
5.68599e-05
5.59195e-05
5.47152e-05
5.31782e-05
5.12232e-05
4.87457e-05
4.56202e-05
4.16986e-05
3.68121e-05
3.07759e-05
2.33991e-05
1.45037e-05
3.95197e-06
-8.31345e-06
-2.222e-05
-3.75096e-05
-5.36886e-05
-7.00009e-05
-8.54469e-05
-9.88704e-05
-0.000109122
-0.000115275
-0.000116849
-0.000113938
-0.000107203
-9.76985e-05
-8.66132e-05
-7.50232e-05
-6.37491e-05
-5.33233e-05
-4.40326e-05
-3.59842e-05
-2.91653e-05
-2.34892e-05
-1.88304e-05
-1.50487e-05
-1.20055e-05
-9.57325e-06
-7.6394e-06
-6.10771e-06
-4.89779e-06
-3.94362e-06
-3.19165e-06
-2.59888e-06
-2.13105e-06
-1.76104e-06
-1.46753e-06
-1.23381e-06
-1.04675e-06
-8.96068e-07
-7.73723e-07
-6.73449e-07
-5.90414e-07
-5.20904e-07
-4.62042e-07
-4.11577e-07
-3.67719e-07
-3.29058e-07
-2.94508e-07
-2.63264e-07
-2.34744e-07
-2.08526e-07
-1.84275e-07
-1.61697e-07
-1.40513e-07
-1.20458e-07
-1.01293e-07
-8.28237e-08
-6.49011e-08
-4.74223e-08
-3.01945e-08
-1.38959e-08
5.96328e-05
5.95972e-05
5.95059e-05
5.93571e-05
5.91448e-05
5.88553e-05
5.84692e-05
5.79613e-05
5.72989e-05
5.64396e-05
5.53294e-05
5.38995e-05
5.20636e-05
4.97151e-05
4.67241e-05
4.29356e-05
3.81707e-05
3.22299e-05
2.49033e-05
1.59894e-05
5.32351e-06
-7.17912e-06
-2.14691e-05
-3.73001e-05
-5.41699e-05
-7.12842e-05
-8.75715e-05
-0.000101772
-0.000112618
-0.000119079
-0.000120611
-0.000117321
-0.000109951
-9.96784e-05
-8.78169e-05
-7.55368e-05
-6.37078e-05
-5.2874e-05
-4.33108e-05
-3.51034e-05
-2.82144e-05
-2.25337e-05
-1.79147e-05
-1.42004e-05
-1.12396e-05
-8.89542e-06
-7.04901e-06
-5.60017e-06
-4.46618e-06
-3.57993e-06
-2.88757e-06
-2.34633e-06
-1.9225e-06
-1.58969e-06
-1.32738e-06
-1.11963e-06
-9.5407e-07
-8.2109e-07
-7.13233e-07
-6.24764e-07
-5.51315e-07
-4.89569e-07
-4.36981e-07
-3.91567e-07
-3.51753e-07
-3.16306e-07
-2.84292e-07
-2.55037e-07
-2.28076e-07
-2.03078e-07
-1.79779e-07
-1.57936e-07
-1.37304e-07
-1.17645e-07
-9.87425e-08
-8.04295e-08
-6.25873e-08
-4.51541e-08
-2.80253e-08
-1.21126e-08
5.97803e-05
5.97495e-05
5.96702e-05
5.95406e-05
5.93546e-05
5.90993e-05
5.87562e-05
5.83009e-05
5.77017e-05
5.69172e-05
5.58939e-05
5.45631e-05
5.28379e-05
5.06098e-05
4.77451e-05
4.40829e-05
3.94347e-05
3.3588e-05
2.63152e-05
1.73925e-05
6.62986e-06
-6.08442e-06
-2.07243e-05
-3.70567e-05
-5.45734e-05
-7.24467e-05
-8.9537e-05
-0.000104486
-0.000115908
-0.000122668
-0.000124162
-0.000120506
-0.000112522
-0.000101511
-8.89099e-05
-7.59793e-05
-6.36337e-05
-5.24251e-05
-4.26156e-05
-3.42681e-05
-2.73212e-05
-2.16419e-05
-1.70643e-05
-1.34159e-05
-1.05335e-05
-8.27211e-06
-6.50723e-06
-5.13515e-06
-4.0712e-06
-3.24736e-06
-2.60963e-06
-2.11552e-06
-1.73185e-06
-1.43296e-06
-1.19907e-06
-1.015e-06
-8.69063e-07
-7.52259e-07
-6.57679e-07
-5.80071e-07
-5.1549e-07
-4.60983e-07
-4.14307e-07
-3.73717e-07
-3.3783e-07
-3.05572e-07
-2.76141e-07
-2.48986e-07
-2.23742e-07
-2.00163e-07
-1.78047e-07
-1.57191e-07
-1.37377e-07
-1.18385e-07
-1.0002e-07
-8.21361e-08
-6.46371e-08
-4.74742e-08
-3.04907e-08
-1.43484e-08
5.99112e-05
5.98846e-05
5.9816e-05
5.97032e-05
5.95405e-05
5.93154e-05
5.90101e-05
5.86013e-05
5.80581e-05
5.73399e-05
5.63938e-05
5.51512e-05
5.3525e-05
5.14049e-05
4.86542e-05
4.51068e-05
4.05661e-05
3.48079e-05
2.75891e-05
1.86659e-05
7.82475e-06
-5.07081e-06
-2.00172e-05
-3.67951e-05
-5.48931e-05
-7.34546e-05
-9.12794e-05
-0.000106917
-0.000118875
-0.000125915
-0.000127377
-0.000123383
-0.000114831
-0.000103141
-8.98644e-05
-7.63458e-05
-6.35388e-05
-5.19998e-05
-4.19766e-05
-3.35106e-05
-2.65178e-05
-2.08448e-05
-1.63079e-05
-1.27207e-05
-9.91003e-06
-7.72336e-06
-6.03155e-06
-4.7279e-06
-3.72612e-06
-2.9575e-06
-2.36795e-06
-1.91528e-06
-1.56685e-06
-1.29763e-06
-1.08855e-06
-9.25073e-07
-7.9614e-07
-6.93292e-07
-6.10097e-07
-5.41732e-07
-4.84629e-07
-4.36161e-07
-3.9435e-07
-3.57661e-07
-3.24882e-07
-2.95074e-07
-2.67558e-07
-2.41891e-07
-2.17802e-07
-1.9512e-07
-1.73698e-07
-1.53371e-07
-1.33942e-07
-1.1521e-07
-9.69993e-08
-7.91847e-08
-6.16997e-08
-4.45372e-08
-2.76453e-08
-1.1987e-08
6.00225e-05
5.99994e-05
5.99397e-05
5.98412e-05
5.9698e-05
5.94982e-05
5.92248e-05
5.88551e-05
5.83591e-05
5.76968e-05
5.68159e-05
5.56481e-05
5.41059e-05
5.20778e-05
4.94247e-05
4.59763e-05
4.15293e-05
3.58497e-05
2.86813e-05
1.97633e-05
8.86209e-06
-4.18073e-06
-1.93817e-05
-3.65346e-05
-5.51271e-05
-7.42792e-05
-9.27393e-05
-0.000108978
-0.000121405
-0.000128694
-0.00013013
-0.000125842
-0.000116796
-0.000104515
-9.06564e-05
-7.66354e-05
-6.3438e-05
-5.16229e-05
-4.14234e-05
-3.28619e-05
-2.58345e-05
-2.01701e-05
-1.56701e-05
-1.21365e-05
-9.38726e-06
-7.26419e-06
-5.63417e-06
-4.38813e-06
-3.43852e-06
-2.71611e-06
-2.16682e-06
-1.74872e-06
-1.42967e-06
-1.1852e-06
-9.96805e-07
-8.50547e-07
-7.35864e-07
-6.44752e-07
-5.71177e-07
-5.10672e-07
-4.59986e-07
-4.16759e-07
-3.79236e-07
-3.46055e-07
-3.16136e-07
-2.88652e-07
-2.6302e-07
-2.38884e-07
-2.16049e-07
-1.94406e-07
-1.7385e-07
-1.54243e-07
-1.35405e-07
-1.17149e-07
-9.93098e-08
-8.17827e-08
-6.45193e-08
-4.752e-08
-3.06649e-08
-1.46307e-08
6.01116e-05
6.00913e-05
6.00386e-05
5.99512e-05
5.98233e-05
5.96434e-05
5.93949e-05
5.9056e-05
5.85969e-05
5.79786e-05
5.71489e-05
5.604e-05
5.45641e-05
5.26089e-05
5.00335e-05
4.66642e-05
4.22927e-05
3.66777e-05
2.95523e-05
2.06428e-05
9.69911e-06
-3.45452e-06
-1.88513e-05
-3.62963e-05
-5.52775e-05
-7.48976e-05
-9.38648e-05
-0.000110586
-0.000123394
-0.000130887
-0.000132305
-0.000127783
-0.000118341
-0.000105589
-9.12675e-05
-7.68503e-05
-6.3348e-05
-5.13191e-05
-4.0985e-05
-3.23518e-05
-2.53002e-05
-1.96447e-05
-1.51751e-05
-1.16843e-05
-8.98377e-06
-6.91066e-06
-5.32891e-06
-4.12771e-06
-3.21855e-06
-2.53189e-06
-2.01362e-06
-1.6221e-06
-1.32555e-06
-1.09996e-06
-9.27299e-07
-7.94068e-07
-6.90107e-07
-6.07758e-07
-5.413e-07
-4.86541e-07
-4.40479e-07
-4.0097e-07
-3.66431e-07
-3.35635e-07
-3.07606e-07
-2.81601e-07
-2.57111e-07
-2.33848e-07
-2.11679e-07
-1.90542e-07
-1.70366e-07
-1.51036e-07
-1.32384e-07
-1.14232e-07
-9.64318e-08
-7.88927e-08
-6.159e-08
-4.45589e-08
-2.77792e-08
-1.22282e-08
6.01766e-05
6.01581e-05
6.01103e-05
6.00307e-05
5.99135e-05
5.97474e-05
5.95164e-05
5.91988e-05
5.87656e-05
5.81778e-05
5.7384e-05
5.63162e-05
5.48867e-05
5.29827e-05
5.04619e-05
4.71486e-05
4.2831e-05
3.72627e-05
3.01698e-05
2.12691e-05
1.02996e-05
-2.92694e-06
-1.84556e-05
-3.60999e-05
-5.53487e-05
-7.52934e-05
-9.46147e-05
-0.000111676
-0.000124753
-0.000132393
-0.000133803
-0.00012912
-0.000119404
-0.000106325
-9.16837e-05
-7.69941e-05
-6.32835e-05
-5.11097e-05
-4.0685e-05
-3.20042e-05
-2.49372e-05
-1.92887e-05
-1.48405e-05
-1.13793e-05
-8.71212e-06
-6.67308e-06
-5.12415e-06
-3.95334e-06
-3.07158e-06
-2.40907e-06
-1.91176e-06
-1.53818e-06
-1.25682e-06
-1.04398e-06
-8.81963e-07
-7.57573e-07
-6.60917e-07
-5.84571e-07
-5.2302e-07
-4.72259e-07
-4.29454e-07
-3.92605e-07
-3.60247e-07
-3.31241e-07
-3.04676e-07
-2.79862e-07
-2.56336e-07
-2.33854e-07
-2.1232e-07
-1.91704e-07
-1.71957e-07
-1.52974e-07
-1.34598e-07
-1.16657e-07
-9.90094e-08
-8.15767e-08
-6.43455e-08
-4.73527e-08
-3.05153e-08
-1.45646e-08
6.02159e-05
6.01985e-05
6.01534e-05
6.0078e-05
5.99665e-05
5.98079e-05
5.95862e-05
5.92802e-05
5.88608e-05
5.82895e-05
5.75148e-05
5.64692e-05
5.50646e-05
5.31881e-05
5.06968e-05
4.7414e-05
4.3126e-05
3.75839e-05
3.05101e-05
2.16168e-05
1.0637e-05
-2.62387e-06
-1.82173e-05
-3.59614e-05
-5.53459e-05
-7.54568e-05
-9.4961e-05
-0.000112199
-0.000125419
-0.00013314
-0.000134551
-0.000129791
-0.000119939
-0.000106697
-9.18958e-05
-7.70705e-05
-6.32564e-05
-5.10108e-05
-4.05413e-05
-3.18371e-05
-2.47625e-05
-1.91175e-05
-1.46799e-05
-1.12332e-05
-8.58235e-06
-6.55995e-06
-5.02701e-06
-3.87096e-06
-3.00243e-06
-2.35155e-06
-1.86427e-06
-1.49922e-06
-1.22502e-06
-1.01814e-06
-8.6105e-07
-7.40696e-07
-6.47326e-07
-5.73634e-07
-5.14203e-07
-4.65122e-07
-4.23642e-07
-3.87837e-07
-3.56302e-07
-3.27939e-07
-3.0187e-07
-2.77427e-07
-2.5417e-07
-2.31874e-07
-2.10462e-07
-1.8992e-07
-1.7021e-07
-1.51235e-07
-1.32838e-07
-1.14852e-07
-9.71378e-08
-7.96257e-08
-6.23124e-08
-4.52546e-08
-2.84365e-08
-1.28101e-08
6.0229e-05
6.02117e-05
6.01669e-05
6.0092e-05
5.99812e-05
5.98235e-05
5.9603e-05
5.92982e-05
5.88804e-05
5.83109e-05
5.75383e-05
5.6495e-05
5.5093e-05
5.32194e-05
5.07315e-05
4.74522e-05
4.31682e-05
3.76302e-05
3.05609e-05
2.16721e-05
1.0697e-05
-2.55956e-06
-1.81491e-05
-3.58902e-05
-5.52731e-05
-7.5384e-05
-9.48904e-05
-0.000112133
-0.00012536
-0.00013309
-0.000134512
-0.000129764
-0.000119923
-0.000106691
-9.18991e-05
-7.70811e-05
-6.32725e-05
-5.10303e-05
-4.05626e-05
-3.18591e-05
-2.47842e-05
-1.91384e-05
-1.46996e-05
-1.12515e-05
-8.59914e-06
-6.57526e-06
-5.04089e-06
-3.88349e-06
-3.01372e-06
-2.3617e-06
-1.87339e-06
-1.5074e-06
-1.23237e-06
-1.02474e-06
-8.66987e-07
-7.46057e-07
-6.52189e-07
-5.78068e-07
-5.18268e-07
-4.68873e-07
-4.27127e-07
-3.911e-07
-3.59383e-07
-3.30873e-07
-3.04682e-07
-2.80137e-07
-2.56791e-07
-2.34413e-07
-2.12927e-07
-1.92317e-07
-1.72543e-07
-1.53506e-07
-1.35048e-07
-1.16997e-07
-9.92154e-08
-8.16305e-08
-6.42398e-08
-4.70953e-08
-3.01416e-08
-1.41976e-08
6.02156e-05
6.01976e-05
6.01508e-05
6.00728e-05
5.99576e-05
5.97942e-05
5.95665e-05
5.92529e-05
5.88243e-05
5.82419e-05
5.74541e-05
5.63934e-05
5.49717e-05
5.30764e-05
5.05654e-05
4.72628e-05
4.29569e-05
3.7401e-05
3.03213e-05
2.14342e-05
1.04784e-05
-2.73521e-06
-1.82524e-05
-3.58879e-05
-5.51317e-05
-7.50767e-05
-9.44046e-05
-0.000111479
-0.000124577
-0.000132245
-0.000133686
-0.000129037
-0.000119355
-0.000106307
-9.16927e-05
-7.70252e-05
-6.33307e-05
-5.11672e-05
-4.07481e-05
-3.20692e-05
-2.50014e-05
-1.93504e-05
-1.48987e-05
-1.14332e-05
-8.76159e-06
-6.71805e-06
-5.16475e-06
-3.9898e-06
-3.10416e-06
-2.43808e-06
-1.9375e-06
-1.56093e-06
-1.27686e-06
-1.06156e-06
-8.97339e-07
-7.70986e-07
-6.72592e-07
-5.94715e-07
-5.31811e-07
-4.7986e-07
-4.36012e-07
-3.98259e-07
-3.65122e-07
-3.35445e-07
-3.08298e-07
-2.82968e-07
-2.58976e-07
-2.36066e-07
-2.14138e-07
-1.93158e-07
-1.73075e-07
-1.53779e-07
-1.35105e-07
-1.16873e-07
-9.89376e-08
-8.122e-08
-6.3712e-08
-4.64645e-08
-2.944e-08
-1.35472e-08
6.01765e-05
6.01568e-05
6.01057e-05
6.0021e-05
5.98966e-05
5.97211e-05
5.94781e-05
5.91456e-05
5.86943e-05
5.80847e-05
5.72652e-05
5.61678e-05
5.47049e-05
5.27642e-05
5.02048e-05
4.68531e-05
4.25008e-05
3.69062e-05
2.98025e-05
2.09152e-05
9.99373e-06
-3.13886e-06
-1.85171e-05
-3.59479e-05
-5.49213e-05
-7.45421e-05
-9.35204e-05
-0.000110265
-0.000123106
-0.000130643
-0.000132113
-0.000127646
-0.000118259
-0.000105557
-9.12804e-05
-7.68991e-05
-6.34234e-05
-5.14118e-05
-4.10872e-05
-3.24575e-05
-2.5405e-05
-1.97457e-05
-1.52706e-05
-1.17731e-05
-9.06538e-06
-6.98505e-06
-5.39627e-06
-4.18838e-06
-3.27298e-06
-2.58057e-06
-2.05704e-06
-1.66073e-06
-1.35983e-06
-1.13032e-06
-9.54164e-07
-8.17836e-07
-7.11154e-07
-6.26424e-07
-5.57885e-07
-5.01314e-07
-4.53684e-07
-4.12832e-07
-3.77155e-07
-3.45396e-07
-3.16543e-07
-2.89817e-07
-2.64682e-07
-2.40832e-07
-2.18122e-07
-1.96488e-07
-1.75852e-07
-1.56089e-07
-1.37021e-07
-1.18457e-07
-1.0024e-07
-8.22782e-08
-6.45514e-08
-4.70998e-08
-2.98756e-08
-1.37878e-08
6.01127e-05
6.00905e-05
6.00331e-05
5.99382e-05
5.97999e-05
5.96063e-05
5.93404e-05
5.89798e-05
5.84943e-05
5.78443e-05
5.69774e-05
5.58255e-05
5.43012e-05
5.22931e-05
4.96621e-05
4.62378e-05
4.1817e-05
3.61655e-05
2.90266e-05
2.01389e-05
9.26772e-06
-3.74676e-06
-1.8923e-05
-3.60571e-05
-5.46396e-05
-7.37932e-05
-9.22689e-05
-0.000108539
-0.000121012
-0.000128361
-0.000129866
-0.000125652
-0.00011668
-0.000104468
-9.067e-05
-7.66981e-05
-6.35372e-05
-5.17463e-05
-4.15605e-05
-3.30044e-05
-2.59765e-05
-2.03075e-05
-1.58002e-05
-1.22577e-05
-9.49897e-06
-7.36615e-06
-5.72656e-06
-4.47138e-06
-3.51319e-06
-2.78283e-06
-2.22622e-06
-1.80144e-06
-1.4763e-06
-1.22631e-06
-1.03297e-06
-8.82312e-07
-7.63739e-07
-6.69201e-07
-5.92616e-07
-5.29473e-07
-4.76489e-07
-4.31279e-07
-3.92055e-07
-3.57418e-07
-3.26238e-07
-2.97642e-07
-2.71008e-07
-2.45956e-07
-2.22278e-07
-1.99857e-07
-1.78582e-07
-1.58301e-07
-1.38818e-07
-1.1993e-07
-1.01461e-07
-8.33041e-08
-6.54193e-08
-4.78273e-08
-3.04527e-08
-1.41701e-08
6.00262e-05
6.00007e-05
5.9935e-05
5.98269e-05
5.96703e-05
5.9453e-05
5.91574e-05
5.876e-05
5.82303e-05
5.75276e-05
5.65992e-05
5.53768e-05
5.37732e-05
5.16782e-05
4.89553e-05
4.54382e-05
4.09304e-05
3.52071e-05
2.8025e-05
1.91392e-05
8.335e-06
-4.52591e-06
-1.94423e-05
-3.61978e-05
-5.42843e-05
-7.28486e-05
-9.06934e-05
-0.00010637
-0.000118385
-0.000125499
-0.000127046
-0.000123143
-0.000114682
-0.000103076
-8.98748e-05
-7.64174e-05
-6.36563e-05
-5.21483e-05
-4.21432e-05
-3.36851e-05
-2.66928e-05
-2.10149e-05
-1.64697e-05
-1.28722e-05
-1.005e-05
-7.85148e-06
-6.14797e-06
-4.83306e-06
-3.82067e-06
-3.04218e-06
-2.44354e-06
-1.98254e-06
-1.62653e-06
-1.35045e-06
-1.1352e-06
-9.66247e-07
-8.3248e-07
-7.25388e-07
-6.38479e-07
-5.66875e-07
-5.06967e-07
-4.56089e-07
-4.12226e-07
-3.73792e-07
-3.39514e-07
-3.08394e-07
-2.79705e-07
-2.52971e-07
-2.27902e-07
-2.04319e-07
-1.82063e-07
-1.60951e-07
-1.40767e-07
-1.21291e-07
-1.02331e-07
-8.37599e-08
-6.55186e-08
-4.76128e-08
-2.99769e-08
-1.35816e-08
5.99193e-05
5.98898e-05
5.98141e-05
5.969e-05
5.95115e-05
5.92657e-05
5.89341e-05
5.84925e-05
5.79095e-05
5.71437e-05
5.61417e-05
5.48349e-05
5.31368e-05
5.09386e-05
4.81069e-05
4.44807e-05
3.98714e-05
3.40658e-05
2.6836e-05
1.7957e-05
7.23712e-06
-5.43733e-06
-2.00431e-05
-3.63505e-05
-5.38551e-05
-7.17328e-05
-8.88474e-05
-0.000103842
-0.000115331
-0.000122176
-0.000123769
-0.000120219
-0.00011234
-0.000101427
-8.89132e-05
-7.60544e-05
-6.37634e-05
-5.25924e-05
-4.28057e-05
-3.44692e-05
-2.75242e-05
-2.18405e-05
-1.72542e-05
-1.35942e-05
-1.0699e-05
-8.42401e-06
-6.6456e-06
-5.26038e-06
-4.18395e-06
-3.34844e-06
-2.6999e-06
-2.19584e-06
-1.80309e-06
-1.49594e-06
-1.25461e-06
-1.0639e-06
-9.12081e-07
-7.90097e-07
-6.9097e-07
-6.09387e-07
-5.4135e-07
-4.83863e-07
-4.34635e-07
-3.91861e-07
-3.54089e-07
-3.20175e-07
-2.89261e-07
-2.60756e-07
-2.34271e-07
-2.09546e-07
-1.86362e-07
-1.645e-07
-1.43717e-07
-1.23771e-07
-1.04452e-07
-8.56091e-08
-6.71576e-08
-4.90737e-08
-3.1239e-08
-1.45189e-08
5.97949e-05
5.9761e-05
5.96738e-05
5.95314e-05
5.93277e-05
5.90492e-05
5.86766e-05
5.81846e-05
5.75409e-05
5.67032e-05
5.56176e-05
5.42155e-05
5.24107e-05
5.00966e-05
4.71433e-05
4.3396e-05
3.86752e-05
3.27809e-05
2.55028e-05
1.66376e-05
6.01929e-06
-6.43951e-06
-2.06925e-05
-3.64969e-05
-5.33546e-05
-7.04756e-05
-8.67913e-05
-0.000101044
-0.000111965
-0.000118521
-0.000120162
-0.000116989
-0.000109736
-9.9573e-05
-8.78092e-05
-7.56102e-05
-6.38437e-05
-5.30539e-05
-4.35183e-05
-3.53252e-05
-2.84403e-05
-2.27562e-05
-1.81286e-05
-1.44025e-05
-1.14278e-05
-9.06889e-06
-7.20754e-06
-5.74404e-06
-4.59604e-06
-3.69658e-06
-2.99195e-06
-2.43938e-06
-2.00517e-06
-1.66292e-06
-1.39208e-06
-1.17671e-06
-1.00441e-06
-8.65487e-07
-7.52423e-07
-6.59412e-07
-5.82024e-07
-5.16892e-07
-4.61413e-07
-4.13536e-07
-3.71608e-07
-3.34318e-07
-3.00664e-07
-2.69926e-07
-2.41604e-07
-2.15349e-07
-1.90877e-07
-1.67923e-07
-1.46215e-07
-1.25489e-07
-1.05516e-07
-8.61212e-08
-6.71983e-08
-4.87058e-08
-3.05394e-08
-1.36916e-08
5.96565e-05
5.96175e-05
5.95177e-05
5.93551e-05
5.91238e-05
5.88095e-05
5.83917e-05
5.78446e-05
5.71344e-05
5.62183e-05
5.50417e-05
5.35358e-05
5.16156e-05
4.91766e-05
4.60931e-05
4.2217e-05
3.73793e-05
3.13943e-05
2.40703e-05
1.52279e-05
4.72729e-06
-7.49147e-06
-2.13591e-05
-3.66216e-05
-5.27895e-05
-6.91107e-05
-8.4589e-05
-9.80698e-05
-0.000108403
-0.000114659
-0.00011635
-0.000113565
-0.000106955
-9.75701e-05
-8.6591e-05
-7.509e-05
-6.38854e-05
-5.35096e-05
-4.42516e-05
-3.62212e-05
-2.94089e-05
-2.3731e-05
-1.90644e-05
-1.52709e-05
-1.22135e-05
-9.76572e-06
-7.81587e-06
-6.26833e-06
-5.04308e-06
-4.07438e-06
-3.30881e-06
-2.70343e-06
-2.224e-06
-1.8434e-06
-1.54031e-06
-1.29799e-06
-1.10329e-06
-9.45872e-07
-8.17609e-07
-7.12164e-07
-6.24638e-07
-5.51258e-07
-4.89084e-07
-4.35788e-07
-3.89498e-07
-3.48718e-07
-3.12284e-07
-2.79336e-07
-2.49252e-07
-2.21582e-07
-1.95967e-07
-1.72089e-07
-1.49638e-07
-1.28327e-07
-1.07898e-07
-8.81547e-08
-6.89623e-08
-5.02473e-08
-3.18501e-08
-1.46537e-08
5.95075e-05
5.94633e-05
5.93499e-05
5.91659e-05
5.89052e-05
5.85527e-05
5.80871e-05
5.74814e-05
5.67009e-05
5.57019e-05
5.44293e-05
5.28145e-05
5.07735e-05
4.82044e-05
4.49861e-05
4.09781e-05
3.60222e-05
2.9948e-05
2.25836e-05
1.37734e-05
3.40484e-06
-8.5553e-06
-2.2016e-05
-3.67135e-05
-5.21703e-05
-6.76748e-05
-8.2305e-05
-9.50096e-05
-0.000104754
-0.000110713
-0.000112452
-0.00011005
-0.000104083
-9.54764e-05
-8.52908e-05
-7.45039e-05
-6.38815e-05
-5.39409e-05
-4.49796e-05
-3.71276e-05
-3.03996e-05
-2.47359e-05
-2.00348e-05
-1.61756e-05
-1.30352e-05
-1.04969e-05
-8.456e-06
-6.8214e-06
-5.51577e-06
-4.47472e-06
-3.64531e-06
-2.98447e-06
-2.45745e-06
-2.03644e-06
-1.69931e-06
-1.42852e-06
-1.21013e-06
-1.03312e-06
-8.88716e-07
-7.70035e-07
-6.71682e-07
-5.89457e-07
-5.20065e-07
-4.60886e-07
-4.09811e-07