/*--------------------------------*- C++ -*----------------------------------*\
| =========                 |                                                 |
| \\      /  F ield         | OpenFOAM: The Open Source CFD Toolbox           |
|  \\    /   O peration     | Version:  2512                                  |
|   \\  /    A nd           | Website:  www.openfoam.com                      |
|    \\/     M anipulation  |                                                 |
\*---------------------------------------------------------------------------*/
FoamFile
{
    version     2.0;
    format      ascii;
    arch        "LSB;label=32;scalar=64";
    class       volScalarField;
    location    "134";
    object      p;
}
// * * * * * * * * * * * * * * * * * * * * * * * * * * * * * * * * * * * * * //

dimensions      [0 2 -2 0 0 0 0];

internalField   nonuniform List<scalar> 
220594
(
4.98026e-05
4.97276e-05
4.95367e-05
4.92302e-05
4.88035e-05
4.82398e-05
4.75154e-05
4.66019e-05
4.54654e-05
4.40659e-05
4.23565e-05
4.02846e-05
3.77915e-05
3.48144e-05
3.12888e-05
2.71514e-05
2.23455e-05
1.68278e-05
1.05758e-05
3.59846e-06
-4.05433e-06
-1.22815e-05
-2.09232e-05
-2.97571e-05
-3.85018e-05
-4.68288e-05
-5.43849e-05
-6.08234e-05
-6.58412e-05
-6.92157e-05
-7.08345e-05
-7.07103e-05
-6.89775e-05
-6.58707e-05
-6.16899e-05
-5.67605e-05
-5.13983e-05
-4.58827e-05
-4.04415e-05
-3.52463e-05
-3.04148e-05
-2.60178e-05
-2.20879e-05
-1.86285e-05
-1.56222e-05
-1.30384e-05
-1.08383e-05
-8.97992e-06
-7.42091e-06
-6.12059e-06
-5.0413e-06
-4.14907e-06
-3.41391e-06
-2.80969e-06
-2.314e-06
-1.90784e-06
-1.5752e-06
-1.30279e-06
-1.07959e-06
-8.96553e-07
-7.46276e-07
-6.2272e-07
-5.20987e-07
-4.37119e-07
-3.6792e-07
-3.108e-07
-2.63643e-07
-2.2469e-07
-1.92453e-07
-1.65657e-07
-1.43203e-07
-1.24142e-07
-1.07651e-07
-9.30257e-08
-7.96512e-08
-6.6994e-08
-5.45892e-08
-4.2096e-08
-2.90416e-08
-1.85346e-08
4.98243e-05
4.97499e-05
4.95608e-05
4.92572e-05
4.88345e-05
4.82759e-05
4.75577e-05
4.66518e-05
4.55243e-05
4.41351e-05
4.24375e-05
4.03785e-05
3.78992e-05
3.49363e-05
3.14243e-05
2.72991e-05
2.25024e-05
1.69888e-05
1.07342e-05
3.74488e-06
-3.93123e-06
-1.21947e-05
-2.08862e-05
-2.97827e-05
-3.85997e-05
-4.70039e-05
-5.46353e-05
-6.11391e-05
-6.62043e-05
-6.96024e-05
-7.12178e-05
-7.10641e-05
-6.92807e-05
-6.61093e-05
-6.1858e-05
-5.68602e-05
-5.1437e-05
-4.58711e-05
-4.03915e-05
-3.51696e-05
-3.03217e-05
-2.59168e-05
-2.19854e-05
-1.85292e-05
-1.55293e-05
-1.29537e-05
-1.07627e-05
-8.91355e-06
-7.36347e-06
-6.07145e-06
-4.99968e-06
-4.11414e-06
-3.38479e-06
-2.78558e-06
-2.29416e-06
-1.89158e-06
-1.56195e-06
-1.29203e-06
-1.07089e-06
-8.89561e-07
-7.40682e-07
-6.18269e-07
-5.17465e-07
-4.34347e-07
-3.6575e-07
-3.09111e-07
-2.62336e-07
-2.23682e-07
-1.91674e-07
-1.6505e-07
-1.4272e-07
-1.23744e-07
-1.07312e-07
-9.27269e-08
-7.93871e-08
-6.67688e-08
-5.44158e-08
-4.19868e-08
-2.90094e-08
-1.84416e-08
4.98669e-05
4.97939e-05
4.96084e-05
4.93105e-05
4.88956e-05
4.83469e-05
4.76412e-05
4.67504e-05
4.56406e-05
4.42719e-05
4.25976e-05
4.05641e-05
3.81122e-05
3.51774e-05
3.16928e-05
2.75918e-05
2.28134e-05
1.73087e-05
1.10491e-05
4.03655e-06
-3.68534e-06
-1.20204e-05
-2.08107e-05
-2.98313e-05
-3.87923e-05
-4.73505e-05
-5.51321e-05
-6.17665e-05
-6.69268e-05
-7.03721e-05
-7.19808e-05
-7.17684e-05
-6.98835e-05
-6.65829e-05
-6.21913e-05
-5.7057e-05
-5.15125e-05
-4.58468e-05
-4.02914e-05
-3.50167e-05
-3.01365e-05
-2.5716e-05
-2.17819e-05
-1.83323e-05
-1.53452e-05
-1.27858e-05
-1.06129e-05
-8.78208e-06
-7.24969e-06
-5.97413e-06
-4.91726e-06
-4.04493e-06
-3.3271e-06
-2.7378e-06
-2.25481e-06
-1.85932e-06
-1.53561e-06
-1.27062e-06
-1.05356e-06
-8.75582e-07
-7.29454e-07
-6.09286e-07
-5.10302e-07
-4.28652e-07
-3.61233e-07
-3.05534e-07
-2.59503e-07
-2.21431e-07
-1.8987e-07
-1.63578e-07
-1.41482e-07
-1.22664e-07
-1.06332e-07
-9.18103e-08
-7.85182e-08
-6.59521e-08
-5.36729e-08
-4.13489e-08
-2.85104e-08
-1.80524e-08
4.99295e-05
4.98586e-05
4.96784e-05
4.93889e-05
4.89854e-05
4.84515e-05
4.77641e-05
4.68954e-05
4.58118e-05
4.44735e-05
4.28335e-05
4.0838e-05
3.84267e-05
3.55337e-05
3.20898e-05
2.80252e-05
2.32747e-05
1.77837e-05
1.15176e-05
4.47159e-06
-3.31726e-06
-1.17578e-05
-2.06942e-05
-2.98992e-05
-3.90748e-05
-4.78632e-05
-5.587e-05
-6.27003e-05
-6.80036e-05
-7.15198e-05
-7.31181e-05
-7.28169e-05
-7.07793e-05
-6.72847e-05
-6.26829e-05
-5.73449e-05
-5.16199e-05
-4.58064e-05
-4.01392e-05
-3.47871e-05
-2.98598e-05
-2.5417e-05
-2.14797e-05
-1.80404e-05
-1.50725e-05
-1.25377e-05
-1.03916e-05
-8.58804e-06
-7.08188e-06
-5.83068e-06
-4.79584e-06
-3.94301e-06
-3.24219e-06
-2.66751e-06
-2.19694e-06
-1.81191e-06
-1.49695e-06
-1.23922e-06
-1.02817e-06
-8.55155e-07
-7.131e-07
-5.96263e-07
-4.9999e-07
-4.20537e-07
-3.54892e-07
-3.00622e-07
-2.55736e-07
-2.18573e-07
-1.8772e-07
-1.61964e-07
-1.40261e-07
-1.21716e-07
-1.05569e-07
-9.11734e-08
-7.79776e-08
-6.55069e-08
-5.33462e-08
-4.1177e-08
-2.8518e-08
-1.81825e-08
5.00106e-05
4.99424e-05
4.97691e-05
4.94905e-05
4.91018e-05
4.85871e-05
4.79235e-05
4.70836e-05
4.60341e-05
4.47353e-05
4.31402e-05
4.11943e-05
3.88363e-05
3.59983e-05
3.26082e-05
2.8592e-05
2.38788e-05
1.84073e-05
1.21343e-05
5.04621e-06
-2.82869e-06
-1.14062e-05
-2.05335e-05
-2.99808e-05
-3.94396e-05
-4.85328e-05
-5.68389e-05
-6.39304e-05
-6.94242e-05
-7.3035e-05
-7.4619e-05
-7.41987e-05
-7.19569e-05
-6.82034e-05
-6.33224e-05
-5.7715e-05
-5.17525e-05
-4.57457e-05
-3.9933e-05
-3.44811e-05
-2.94937e-05
-2.50233e-05
-2.10829e-05
-1.76581e-05
-1.47161e-05
-1.22138e-05
-1.01032e-05
-8.33545e-06
-6.86363e-06
-5.64425e-06
-4.63813e-06
-3.81071e-06
-3.132e-06
-2.57631e-06
-2.12186e-06
-1.7504e-06
-1.44675e-06
-1.19842e-06
-9.95135e-07
-8.28508e-07
-6.91692e-07
-5.79126e-07
-4.86317e-07
-4.0966e-07
-3.46263e-07
-2.93795e-07
-2.50344e-07
-2.14311e-07
-1.84328e-07
-1.59221e-07
-1.3798e-07
-1.19747e-07
-1.038e-07
-8.95295e-08
-7.64245e-08
-6.40458e-08
-5.20101e-08
-4.0021e-08
-2.7611e-08
-1.76011e-08
5.01081e-05
5.00433e-05
4.98782e-05
4.96128e-05
4.92421e-05
4.87504e-05
4.81156e-05
4.73106e-05
4.63025e-05
4.50517e-05
4.35111e-05
4.16256e-05
3.93327e-05
3.65622e-05
3.32384e-05
2.92824e-05
2.46165e-05
1.91708e-05
1.28919e-05
5.75512e-06
-2.22225e-06
-1.09649e-05
-2.03246e-05
-3.00687e-05
-3.98765e-05
-4.93472e-05
-5.80253e-05
-6.54425e-05
-7.11748e-05
-7.49036e-05
-7.64694e-05
-7.58991e-05
-7.34011e-05
-6.93245e-05
-6.40964e-05
-5.81563e-05
-5.19023e-05
-4.56598e-05
-3.9671e-05
-3.40995e-05
-2.90413e-05
-2.45393e-05
-2.05971e-05
-1.71914e-05
-1.42821e-05
-1.18202e-05
-9.75332e-06
-8.02943e-06
-6.59955e-06
-5.41891e-06
-4.44768e-06
-3.65108e-06
-2.99917e-06
-2.46647e-06
-2.03152e-06
-1.67646e-06
-1.38651e-06
-1.14956e-06
-9.55678e-07
-7.96803e-07
-6.66347e-07
-5.58975e-07
-4.70387e-07
-3.97148e-07
-3.36512e-07
-2.86272e-07
-2.44609e-07
-2.09997e-07
-1.81122e-07
-1.56853e-07
-1.36223e-07
-1.18416e-07
-1.02753e-07
-8.86742e-08
-7.57119e-08
-6.34687e-08
-5.15953e-08
-3.98154e-08
-2.76503e-08
-1.78494e-08
5.02198e-05
5.01587e-05
5.00032e-05
4.97528e-05
4.94028e-05
4.89377e-05
4.8336e-05
4.75712e-05
4.66108e-05
4.54155e-05
4.39379e-05
4.21227e-05
3.99056e-05
3.72141e-05
3.39684e-05
3.0084e-05
2.54752e-05
2.00624e-05
1.37802e-05
6.59043e-06
-1.50258e-06
-1.04347e-05
-2.00637e-05
-3.01548e-05
-4.03732e-05
-5.02907e-05
-5.94114e-05
-6.72177e-05
-7.32353e-05
-7.71056e-05
-7.86486e-05
-7.78975e-05
-7.50917e-05
-7.06286e-05
-6.4988e-05
-5.86551e-05
-5.20596e-05
-4.55431e-05
-3.93518e-05
-3.36443e-05
-2.85069e-05
-2.39713e-05
-2.00296e-05
-1.66483e-05
-1.37785e-05
-1.13646e-05
-9.34907e-06
-7.67644e-06
-6.29533e-06
-5.15961e-06
-4.22873e-06
-3.46768e-06
-2.84662e-06
-2.34034e-06
-1.92778e-06
-1.59151e-06
-1.31721e-06
-1.09324e-06
-9.10073e-07
-7.60005e-07
-6.36753e-07
-5.3524e-07
-4.51393e-07
-3.81975e-07
-3.24413e-07
-2.7664e-07
-2.36951e-07
-2.03902e-07
-1.7624e-07
-1.52885e-07
-1.32916e-07
-1.15567e-07
-1.00213e-07
-8.63449e-08
-7.3547e-08
-6.14671e-08
-4.97937e-08
-3.82775e-08
-2.64599e-08
-1.71134e-08
5.03429e-05
5.02859e-05
5.01409e-05
4.99073e-05
4.958e-05
4.91444e-05
4.85795e-05
4.78592e-05
4.69519e-05
4.58183e-05
4.44113e-05
4.26746e-05
4.05428e-05
3.79404e-05
3.47836e-05
3.09814e-05
2.64396e-05
2.10673e-05
1.47857e-05
7.54145e-06
-6.76714e-07
-9.81791e-06
-1.97479e-05
-3.02303e-05
-4.09153e-05
-5.13442e-05
-6.09744e-05
-6.92307e-05
-7.55794e-05
-7.96139e-05
-8.11296e-05
-8.01669e-05
-7.70028e-05
-7.20921e-05
-6.59771e-05
-5.9196e-05
-5.22142e-05
-4.5391e-05
-3.89753e-05
-3.3119e-05
-2.78971e-05
-2.33278e-05
-1.939e-05
-1.60386e-05
-1.3215e-05
-1.08562e-05
-8.89898e-06
-7.28417e-06
-5.95785e-06
-4.87238e-06
-3.98653e-06
-3.26509e-06
-2.67833e-06
-2.20141e-06
-1.81369e-06
-1.49828e-06
-1.24137e-06
-1.0318e-06
-8.60553e-07
-7.20287e-07
-6.05061e-07
-5.10086e-07
-4.31536e-07
-3.66398e-07
-3.12288e-07
-2.67301e-07
-2.29853e-07
-1.98589e-07
-1.72324e-07
-1.5003e-07
-1.30835e-07
-1.14028e-07
-9.90375e-08
-8.54151e-08
-7.27977e-08
-6.08808e-08
-4.939e-08
-3.80974e-08
-2.65337e-08
-1.74043e-08
5.04742e-05
5.04218e-05
5.0288e-05
5.00723e-05
4.97696e-05
4.93656e-05
4.88401e-05
4.81679e-05
4.73177e-05
4.62509e-05
4.49202e-05
4.3269e-05
4.12301e-05
3.87256e-05
3.5667e-05
3.19566e-05
2.74911e-05
2.21673e-05
1.58917e-05
8.59386e-06
2.45007e-07
-9.11959e-06
-1.93757e-05
-3.02865e-05
-4.14872e-05
-5.24853e-05
-6.26864e-05
-7.14496e-05
-7.81727e-05
-8.23928e-05
-8.38767e-05
-8.2673e-05
-7.91023e-05
-7.36867e-05
-6.70406e-05
-5.97621e-05
-5.2356e-05
-4.51994e-05
-3.85428e-05
-3.25295e-05
-2.72207e-05
-2.26194e-05
-1.86898e-05
-1.5374e-05
-1.2603e-05
-1.03055e-05
-8.41271e-06
-6.86121e-06
-5.59452e-06
-4.56355e-06
-3.72635e-06
-3.04757e-06
-2.49769e-06
-2.05224e-06
-1.69111e-06
-1.39795e-06
-1.15955e-06
-9.65315e-07
-8.06696e-07
-6.76798e-07
-5.70037e-07
-4.8193e-07
-4.08925e-07
-3.48249e-07
-2.97733e-07
-2.55643e-07
-2.2053e-07
-1.91136e-07
-1.66343e-07
-1.4518e-07
-1.26828e-07
-1.1063e-07
-9.60769e-08
-8.27783e-08
-7.04272e-08
-5.87668e-08
-4.75594e-08
-3.66014e-08
-2.54398e-08
-1.6784e-08
5.06107e-05
5.05629e-05
5.04409e-05
5.02439e-05
4.99667e-05
4.95958e-05
4.91116e-05
4.84897e-05
4.76995e-05
4.67029e-05
4.54528e-05
4.3892e-05
4.19519e-05
3.9552e-05
3.6599e-05
3.29886e-05
2.86078e-05
2.33405e-05
1.70772e-05
9.72929e-06
1.24835e-06
-8.34812e-06
-1.8948e-05
-3.03158e-05
-4.20718e-05
-5.36882e-05
-6.45137e-05
-7.38347e-05
-8.09716e-05
-8.53972e-05
-8.68449e-05
-8.53725e-05
-8.13512e-05
-7.53794e-05
-6.81528e-05
-6.03361e-05
-5.24758e-05
-4.49666e-05
-3.80586e-05
-3.18843e-05
-2.64893e-05
-2.18594e-05
-1.79432e-05
-1.46686e-05
-1.19558e-05
-9.72512e-06
-7.90155e-06
-6.41764e-06
-5.21431e-06
-4.24099e-06
-3.45511e-06
-2.82126e-06
-2.31013e-06
-1.89773e-06
-1.56449e-06
-1.29467e-06
-1.07569e-06
-8.97531e-07
-7.52177e-07
-6.33175e-07
-5.35313e-07
-4.54427e-07
-3.87249e-07
-3.31264e-07
-2.84526e-07
-2.45484e-07
-2.12827e-07
-1.85393e-07
-1.62134e-07
-1.42135e-07
-1.2463e-07
-1.09021e-07
-9.48595e-08
-8.18194e-08
-6.96496e-08
-5.814e-08
-4.70882e-08
-3.63104e-08
-2.53508e-08
-1.68922e-08
5.07488e-05
5.07057e-05
5.05958e-05
5.04177e-05
5.01666e-05
4.98294e-05
4.93873e-05
4.88168e-05
4.80881e-05
4.71635e-05
4.59962e-05
4.45287e-05
4.26911e-05
4.04001e-05
3.75582e-05
3.4054e-05
2.97648e-05
2.45612e-05
1.83174e-05
1.09249e-05
2.31454e-06
-7.51608e-06
-1.84691e-05
-3.03123e-05
-4.2652e-05
-5.49241e-05
-6.64171e-05
-7.63382e-05
-8.39224e-05
-8.85704e-05
-8.99782e-05
-8.82133e-05
-8.37032e-05
-7.71324e-05
-6.92861e-05
-6.09007e-05
-5.25659e-05
-4.46931e-05
-3.75298e-05
-3.11952e-05
-2.57174e-05
-2.10639e-05
-1.71662e-05
-1.3938e-05
-1.12881e-05
-9.12812e-06
-7.37709e-06
-5.96345e-06
-4.82559e-06
-3.91158e-06
-3.1783e-06
-2.59033e-06
-2.11869e-06
-1.73987e-06
-1.43489e-06
-1.18867e-06
-9.89273e-07
-8.27302e-07
-6.95282e-07
-5.87213e-07
-4.98261e-07
-4.24591e-07
-3.63231e-07
-3.11933e-07
-2.68984e-07
-2.33022e-07
-2.02873e-07
-1.77471e-07
-1.55836e-07
-1.37105e-07
-1.20565e-07
-1.05677e-07
-9.20582e-08
-7.94419e-08
-6.76329e-08
-5.64643e-08
-4.57642e-08
-3.53647e-08
-2.48099e-08
-1.67368e-08
5.08852e-05
5.08468e-05
5.07487e-05
5.05895e-05
5.03643e-05
5.00605e-05
4.96604e-05
4.91411e-05
4.84737e-05
4.76212e-05
4.6537e-05
4.51634e-05
4.34294e-05
4.12493e-05
3.85211e-05
3.51269e-05
3.09342e-05
2.58005e-05
1.95831e-05
1.21534e-05
3.41994e-06
-6.64082e-06
-1.79474e-05
-3.0273e-05
-4.32113e-05
-5.61622e-05
-6.83519e-05
-7.89036e-05
-8.69604e-05
-9.18442e-05
-9.3209e-05
-9.11329e-05
-8.61053e-05
-7.89041e-05
-7.04116e-05
-6.14396e-05
-5.26216e-05
-4.43833e-05
-3.69673e-05
-3.04775e-05
-2.49229e-05
-2.02517e-05
-1.63778e-05
-1.32003e-05
-1.06166e-05
-8.52976e-06
-6.85302e-06
-5.51082e-06
-4.43918e-06
-3.58491e-06
-2.90448e-06
-2.36251e-06
-1.93039e-06
-1.58513e-06
-1.30838e-06
-1.0857e-06
-9.05841e-07
-7.60019e-07
-6.41297e-07
-5.44122e-07
-4.64032e-07
-3.97519e-07
-3.41906e-07
-2.95219e-07
-2.55979e-07
-2.23012e-07
-1.95279e-07
-1.71801e-07
-1.5166e-07
-1.34044e-07
-1.18295e-07
-1.03937e-07
-9.06533e-08
-7.82426e-08
-6.65654e-08
-5.54976e-08
-4.48956e-08
-3.46079e-08
-2.41925e-08
-1.63374e-08
5.10164e-05
5.09826e-05
5.0896e-05
5.0755e-05
5.05548e-05
5.02835e-05
4.9924e-05
4.94545e-05
4.88467e-05
4.80645e-05
4.70616e-05
4.57801e-05
4.41482e-05
4.20778e-05
3.94631e-05
3.61797e-05
3.20859e-05
2.70263e-05
2.08415e-05
1.33828e-05
4.53604e-06
-5.74471e-06
-1.73959e-05
-3.0198e-05
-4.37345e-05
-5.73701e-05
-7.02686e-05
-8.14665e-05
-9.00103e-05
-9.51379e-05
-9.64579e-05
-9.40593e-05
-8.84973e-05
-8.06495e-05
-7.15002e-05
-6.19386e-05
-5.2641e-05
-4.40451e-05
-3.63857e-05
-2.975e-05
-2.41265e-05
-1.94437e-05
-1.55981e-05
-1.2474e-05
-9.95783e-06
-7.94455e-06
-6.34165e-06
-5.06994e-06
-4.06325e-06
-3.26733e-06
-2.63831e-06
-2.14096e-06
-1.74708e-06
-1.4342e-06
-1.18461e-06
-9.84552e-07
-8.23435e-07
-6.93096e-07
-5.87125e-07
-5.00397e-07
-4.28812e-07
-3.69174e-07
-3.19105e-07
-2.76898e-07
-2.41309e-07
-2.11344e-07
-1.86087e-07
-1.64637e-07
-1.46125e-07
-1.29785e-07
-1.15011e-07
-1.01388e-07
-8.86676e-08
-7.67135e-08
-6.5439e-08
-5.47569e-08
-4.45438e-08
-3.46505e-08
-2.46039e-08
-1.69619e-08
5.11392e-05
5.11096e-05
5.10337e-05
5.091e-05
5.07333e-05
5.04925e-05
5.01714e-05
4.97489e-05
4.91976e-05
4.84819e-05
4.75562e-05
4.63626e-05
4.48284e-05
4.28636e-05
4.03588e-05
3.71838e-05
3.31881e-05
2.82043e-05
2.20569e-05
1.45776e-05
5.62985e-06
-4.85501e-06
-1.68323e-05
-3.00918e-05
-4.42087e-05
-5.85153e-05
-7.2114e-05
-8.39552e-05
-9.29868e-05
-9.83597e-05
-9.96349e-05
-9.69117e-05
-9.08136e-05
-8.23216e-05
-7.25236e-05
-6.23863e-05
-5.26264e-05
-4.36906e-05
-3.58038e-05
-2.90348e-05
-2.33518e-05
-1.86637e-05
-1.48496e-05
-1.17802e-05
-9.33099e-06
-7.3896e-06
-5.85824e-06
-4.65438e-06
-3.70991e-06
-2.96968e-06
-2.38961e-06
-1.93466e-06
-1.57704e-06
-1.29482e-06
-1.07091e-06
-8.92193e-07
-7.48739e-07
-6.32974e-07
-5.38983e-07
-4.62042e-07
-3.98378e-07
-3.45098e-07
-3.00104e-07
-2.61953e-07
-2.29629e-07
-2.02306e-07
-1.79181e-07
-1.59419e-07
-1.42194e-07
-1.26778e-07
-1.12619e-07
-9.93682e-08
-8.68496e-08
-7.49954e-08
-6.37737e-08
-5.31337e-08
-4.29715e-08
-3.31477e-08
-2.322e-08
-1.58795e-08
5.12503e-05
5.12246e-05
5.11586e-05
5.10505e-05
5.08953e-05
5.06824e-05
5.03963e-05
5.00167e-05
4.95171e-05
4.88626e-05
4.80079e-05
4.68953e-05
4.54515e-05
4.35849e-05
4.1183e-05
3.81103e-05
3.42085e-05
2.92991e-05
2.31918e-05
1.56996e-05
6.66498e-06
-4.0031e-06
-1.62791e-05
-2.99629e-05
-4.46243e-05
-5.95661e-05
-7.38335e-05
-8.62933e-05
-9.57969e-05
-0.000101409
-0.000102641
-9.96022e-05
-9.29849e-05
-8.38725e-05
-7.34554e-05
-6.27748e-05
-5.25839e-05
-4.33354e-05
-3.52428e-05
-2.83562e-05
-2.26237e-05
-1.79354e-05
-1.41543e-05
-1.11381e-05
-8.75271e-06
-6.87888e-06
-5.41417e-06
-4.27312e-06
-3.38596e-06
-2.69684e-06
-2.16156e-06
-1.7453e-06
-1.4207e-06
-1.16635e-06
-9.6573e-07
-8.0636e-07
-6.78921e-07
-5.76395e-07
-4.93319e-07
-4.25325e-07
-3.68937e-07
-3.21529e-07
-2.81265e-07
-2.46951e-07
-2.17779e-07
-1.93079e-07
-1.72141e-07
-1.5418e-07
-1.38397e-07
-1.24097e-07
-1.10774e-07
-9.8144e-08
-8.61008e-08
-7.46437e-08
-6.37918e-08
-5.35241e-08
-4.37454e-08
-3.43019e-08
-2.46844e-08
-1.73558e-08
5.1347e-05
5.13247e-05
5.12673e-05
5.11729e-05
5.10365e-05
5.08481e-05
5.05927e-05
5.0251e-05
4.97968e-05
4.91962e-05
4.84043e-05
4.73635e-05
4.60001e-05
4.42212e-05
4.19116e-05
3.89314e-05
3.51154e-05
3.02755e-05
2.42081e-05
1.67097e-05
7.60318e-06
-3.22303e-06
-1.57617e-05
-2.98237e-05
-4.4975e-05
-6.04934e-05
-7.53726e-05
-8.84026e-05
-9.83437e-05
-0.000104178
-0.000105371
-0.000102039
-9.49406e-05
-8.52559e-05
-7.42725e-05
-6.30999e-05
-5.25233e-05
-4.29988e-05
-3.47272e-05
-2.77408e-05
-2.19689e-05
-1.72844e-05
-1.35357e-05
-1.05692e-05
-8.24225e-06
-6.42952e-06
-5.02464e-06
-3.93967e-06
-3.10348e-06
-2.45967e-06
-1.96399e-06
-1.58189e-06
-1.28638e-06
-1.0565e-06
-8.76287e-07
-7.33814e-07
-6.20328e-07
-5.29304e-07
-4.55677e-07
-3.95385e-07
-3.45201e-07
-3.02732e-07
-2.66376e-07
-2.35166e-07
-2.08487e-07
-1.85806e-07
-1.66498e-07
-1.49813e-07
-1.34975e-07
-1.21315e-07
-1.08372e-07
-9.5925e-08
-8.39402e-08
-7.24834e-08
-6.16233e-08
-5.13671e-08
-4.16282e-08
-3.22539e-08
-2.27726e-08
-1.5819e-08
5.14268e-05
5.14073e-05
5.13571e-05
5.12741e-05
5.11534e-05
5.09853e-05
5.07556e-05
5.04454e-05
5.00293e-05
4.94737e-05
4.87345e-05
4.7754e-05
4.64584e-05
4.47536e-05
4.25223e-05
3.96212e-05
3.58793e-05
3.11004e-05
2.50698e-05
1.75698e-05
8.40656e-06
-2.54953e-06
-1.53077e-05
-2.96891e-05
-4.5258e-05
-6.12719e-05
-7.66805e-05
-9.02068e-05
-0.000100531
-0.000106562
-0.00010772
-0.000104133
-9.66121e-05
-8.64284e-05
-7.49549e-05
-6.33605e-05
-5.24568e-05
-4.27007e-05
-3.42812e-05
-2.72139e-05
-2.14119e-05
-1.67333e-05
-1.3014e-05
-1.00908e-05
-7.81384e-06
-6.05303e-06
-4.69869e-06
-3.66086e-06
-2.86736e-06
-2.26139e-06
-1.79874e-06
-1.44507e-06
-1.17375e-06
-9.6421e-07
-8.0093e-07
-6.7249e-07
-5.70618e-07
-4.89213e-07
-4.23538e-07
-3.69776e-07
-3.24893e-07
-2.86685e-07
-2.53746e-07
-2.25299e-07
-2.00896e-07
-1.80122e-07
-1.62413e-07
-1.47048e-07
-1.33259e-07
-1.20395e-07
-1.0803e-07
-9.59993e-08
-8.4333e-08
-7.31545e-08
-6.25743e-08
-5.26195e-08
-4.32007e-08
-3.41388e-08
-2.48742e-08
-1.77639e-08
5.14876e-05
5.14703e-05
5.14256e-05
5.13514e-05
5.12428e-05
5.10904e-05
5.08806e-05
5.05947e-05
5.02081e-05
4.96875e-05
4.89891e-05
4.80556e-05
4.68127e-05
4.51659e-05
4.29961e-05
4.01573e-05
3.64743e-05
3.17444e-05
2.57443e-05
1.82453e-05
9.04009e-06
-2.01538e-06
-1.49438e-05
-2.95753e-05
-4.54736e-05
-6.18808e-05
-7.77119e-05
-9.16367e-05
-0.00010227
-0.00010846
-0.000109592
-0.000105797
-9.79368e-05
-8.73523e-05
-7.54873e-05
-6.35588e-05
-5.23981e-05
-4.2462e-05
-3.39287e-05
-2.68003e-05
-2.09768e-05
-1.63044e-05
-1.26093e-05
-9.72075e-06
-7.48347e-06
-5.76351e-06
-4.44872e-06
-3.44764e-06
-2.68733e-06
-2.11071e-06
-1.6736e-06
-1.34189e-06
-1.08919e-06
-8.95264e-07
-7.44929e-07
-6.27166e-07
-5.34093e-07
-4.59945e-07
-4.00238e-07
-3.51333e-07
-3.1034e-07
-2.75192e-07
-2.44635e-07
-2.1805e-07
-1.95124e-07
-1.7554e-07
-1.58786e-07
-1.44159e-07
-1.30896e-07
-1.1836e-07
-1.06155e-07
-9.41639e-08
-8.24699e-08
-7.1247e-08
-6.06403e-08
-5.06924e-08
-4.13127e-08
-3.23152e-08
-2.31683e-08
-1.63735e-08
5.15278e-05
5.15119e-05
5.1471e-05
5.14028e-05
5.13024e-05
5.11607e-05
5.09642e-05
5.06949e-05
5.03283e-05
4.98314e-05
4.91609e-05
4.82593e-05
4.70525e-05
4.54453e-05
4.33177e-05
4.05217e-05
3.68793e-05
3.21835e-05
2.6205e-05
1.87075e-05
9.47441e-06
-1.64851e-06
-1.46935e-05
-2.94973e-05
-4.56236e-05
-6.23043e-05
-7.84306e-05
-9.2635e-05
-0.000103487
-0.000109789
-0.000110903
-0.000106962
-9.88625e-05
-8.79967e-05
-7.58583e-05
-6.36977e-05
-5.23598e-05
-4.23002e-05
-3.36893e-05
-2.65196e-05
-2.06819e-05
-1.60141e-05
-1.23359e-05
-9.47106e-06
-7.26083e-06
-5.56861e-06
-4.28063e-06
-3.3044e-06
-2.56648e-06
-2.00963e-06
-1.58973e-06
-1.2728e-06
-1.03263e-06
-8.49198e-07
-7.07564e-07
-5.96986e-07
-5.09858e-07
-4.40646e-07
-3.85035e-07
-3.39496e-07
-3.01225e-07
-2.68241e-07
-2.39391e-07
-2.14163e-07
-1.92343e-07
-1.73683e-07
-1.57705e-07
-1.43716e-07
-1.30953e-07
-1.18781e-07
-1.06825e-07
-9.49989e-08
-8.34269e-08
-7.23186e-08
-6.18436e-08
-5.2053e-08
-4.28482e-08
-3.40176e-08
-2.49565e-08
-1.79526e-08
5.15463e-05
5.15312e-05
5.14922e-05
5.14268e-05
5.13305e-05
5.11941e-05
5.10043e-05
5.07432e-05
5.03865e-05
4.99015e-05
4.92448e-05
4.83592e-05
4.71704e-05
4.55829e-05
4.34764e-05
4.07018e-05
3.70797e-05
3.24008e-05
2.64331e-05
1.8936e-05
9.68833e-06
-1.46935e-06
-1.45743e-05
-2.94666e-05
-4.57104e-05
-6.2532e-05
-7.88109e-05
-9.31601e-05
-0.000104125
-0.000110486
-0.000111591
-0.000107575
-9.93511e-05
-8.83399e-05
-7.60605e-05
-6.37806e-05
-5.23518e-05
-4.22289e-05
-3.35781e-05
-2.6387e-05
-2.05415e-05
-1.58756e-05
-1.22053e-05
-9.35197e-06
-7.15487e-06
-5.47617e-06
-4.20123e-06
-3.23708e-06
-2.51001e-06
-1.96273e-06
-1.55113e-06
-1.24131e-06
-1.00714e-06
-8.2869e-07
-6.91149e-07
-5.83915e-07
-4.99525e-07
-4.32568e-07
-3.7881e-07
-3.34771e-07
-2.97678e-07
-2.65586e-07
-2.37392e-07
-2.12642e-07
-1.91178e-07
-1.72791e-07
-1.57023e-07
-1.43181e-07
-1.30499e-07
-1.18339e-07
-1.06336e-07
-9.44218e-08
-8.27465e-08
-7.15436e-08
-6.09993e-08
-5.1171e-08
-4.19565e-08
-3.31369e-08
-2.41175e-08
-1.72539e-08
5.15427e-05
5.15276e-05
5.14884e-05
5.1423e-05
5.13264e-05
5.11898e-05
5.09997e-05
5.07382e-05
5.03811e-05
4.98956e-05
4.92383e-05
4.83521e-05
4.71625e-05
4.55742e-05
4.34668e-05
4.06912e-05
3.70679e-05
3.23878e-05
2.64187e-05
1.89201e-05
9.67084e-06
-1.48856e-06
-1.45953e-05
-2.94895e-05
-4.57352e-05
-6.25588e-05
-7.88395e-05
-9.31903e-05
-0.000104156
-0.000110518
-0.000111623
-0.000107607
-9.93824e-05
-8.83703e-05
-7.609e-05
-6.38091e-05
-5.23793e-05
-4.2255e-05
-3.36027e-05
-2.64098e-05
-2.05625e-05
-1.58948e-05
-1.22227e-05
-9.36771e-06
-7.16904e-06
-5.48889e-06
-4.21263e-06
-3.24727e-06
-2.51912e-06
-1.97086e-06
-1.5584e-06
-1.24783e-06
-1.013e-06
-8.33959e-07
-6.95884e-07
-5.88174e-07
-5.03372e-07
-4.3607e-07
-3.82026e-07
-3.37747e-07
-3.00437e-07
-2.68138e-07
-2.39742e-07
-2.14798e-07
-1.93156e-07
-1.74612e-07
-1.58707e-07
-1.44741e-07
-1.31936e-07
-1.19646e-07
-1.07502e-07
-9.54411e-08
-8.36216e-08
-7.2288e-08
-6.16358e-08
-5.17264e-08
-4.24563e-08
-3.35985e-08
-2.4539e-08
-1.75965e-08
5.15169e-05
5.1501e-05
5.14598e-05
5.13911e-05
5.12901e-05
5.11477e-05
5.09504e-05
5.068e-05
5.0312e-05
4.98137e-05
4.91415e-05
4.8238e-05
4.7029e-05
4.54193e-05
4.32889e-05
4.04899e-05
3.6844e-05
3.21445e-05
2.61619e-05
1.866e-05
9.42213e-06
-1.70588e-06
-1.47563e-05
-2.95656e-05
-4.56977e-05
-6.2384e-05
-7.85158e-05
-9.27249e-05
-0.00010358
-0.000109885
-0.000110999
-0.000107058
-9.89557e-05
-8.80874e-05
-7.59463e-05
-6.37829e-05
-5.24417e-05
-4.2378e-05
-3.37624e-05
-2.65876e-05
-2.07445e-05
-1.60713e-05
-1.23878e-05
-9.51801e-06
-7.30308e-06
-5.60654e-06
-4.31458e-06
-3.33472e-06
-2.59351e-06
-2.03372e-06
-1.61121e-06
-1.29199e-06
-1.04979e-06
-8.64529e-07
-7.21243e-07
-6.09184e-07
-5.20761e-07
-4.5045e-07
-3.93916e-07
-3.47587e-07
-3.086e-07
-2.74933e-07
-2.45417e-07
-2.19551e-07
-1.97143e-07
-1.7796e-07
-1.61521e-07
-1.4711e-07
-1.33934e-07
-1.21333e-07
-1.08922e-07
-9.66276e-08
-8.46e-08
-7.30818e-08
-6.22692e-08
-5.22269e-08
-4.28535e-08
-3.39214e-08
-2.48081e-08
-1.78067e-08
5.14696e-05
5.14521e-05
5.14069e-05
5.1332e-05
5.12225e-05
5.10689e-05
5.08575e-05
5.05699e-05
5.01811e-05
4.96581e-05
4.89569e-05
4.80202e-05
4.67737e-05
4.51227e-05
4.29484e-05
4.01045e-05
3.64159e-05
3.16798e-05
2.5673e-05
1.81667e-05
8.95365e-06
-2.11019e-06
-1.50474e-05
-2.96881e-05
-4.55958e-05
-6.20122e-05
-7.78521e-05
-9.17847e-05
-0.000102425
-0.000108618
-0.000109751
-0.000105954
-9.80903e-05
-8.75016e-05
-7.56323e-05
-6.3699e-05
-5.25329e-05
-4.25902e-05
-3.40492e-05
-2.69124e-05
-2.10801e-05
-1.63988e-05
-1.26952e-05
-9.79836e-06
-7.55339e-06
-5.8263e-06
-4.50497e-06
-3.49793e-06
-2.7322e-06
-2.15073e-06
-1.70935e-06
-1.37387e-06
-1.11784e-06
-9.20923e-07
-7.67894e-07
-6.47722e-07
-5.52548e-07
-4.76617e-07
-4.15417e-07
-3.65234e-07
-3.23091e-07
-2.86851e-07
-2.55234e-07
-2.27635e-07
-2.03774e-07
-1.83357e-07
-1.65866e-07
-1.50562e-07
-1.36633e-07
-1.23402e-07
-1.10459e-07
-9.77054e-08
-8.52685e-08
-7.33746e-08
-6.22126e-08
-5.18479e-08
-4.21854e-08
-3.30106e-08
-2.37407e-08
-1.68206e-08
5.14017e-05
5.1382e-05
5.13311e-05
5.12471e-05
5.11251e-05
5.09553e-05
5.07236e-05
5.04108e-05
4.99918e-05
4.94329e-05
4.86897e-05
4.77048e-05
4.64042e-05
4.46937e-05
4.24561e-05
3.9548e-05
3.57983e-05
3.10109e-05
2.4971e-05
1.7461e-05
8.28695e-06
-2.68061e-06
-1.54508e-05
-2.98447e-05
-4.54264e-05
-6.14529e-05
-7.68733e-05
-9.04101e-05
-0.000100743
-0.000106778
-0.000107938
-0.000104348
-9.68229e-05
-8.66337e-05
-7.51543e-05
-6.35535e-05
-5.26422e-05
-4.2877e-05
-3.4447e-05
-2.73683e-05
-2.15543e-05
-1.68636e-05
-1.31326e-05
-1.0198e-05
-7.91054e-06
-6.13994e-06
-4.7766e-06
-3.73053e-06
-2.92956e-06
-2.31689e-06
-1.84829e-06
-1.48939e-06
-1.21342e-06
-9.9973e-07
-8.32706e-07
-7.00916e-07
-5.96112e-07
-5.12204e-07
-4.44418e-07
-3.8884e-07
-3.42324e-07
-3.02572e-07
-2.68141e-07
-2.3827e-07
-2.12549e-07
-1.90592e-07
-1.71826e-07
-1.55483e-07
-1.40732e-07
-1.2687e-07
-1.13455e-07
-1.00346e-07
-8.76309e-08
-7.55044e-08
-6.4136e-08
-5.35851e-08
-4.37598e-08
-3.44485e-08
-2.50426e-08
-1.78719e-08
5.13151e-05
5.12924e-05
5.12342e-05
5.11386e-05
5.10005e-05
5.08099e-05
5.05519e-05
5.0207e-05
4.97491e-05
4.91442e-05
4.83473e-05
4.73009e-05
4.59311e-05
4.4145e-05
4.18274e-05
3.88383e-05
3.50125e-05
3.01619e-05
2.40828e-05
1.65718e-05
7.45177e-06
-3.3888e-06
-1.59425e-05
-3.00201e-05
-4.51872e-05
-6.07212e-05
-7.5615e-05
-8.86577e-05
-9.86087e-05
-0.000104449
-0.000105643
-0.000102309
-9.52052e-05
-8.55137e-05
-7.45229e-05
-6.33423e-05
-5.27562e-05
-4.32203e-05
-3.49358e-05
-2.79351e-05
-2.21484e-05
-1.74489e-05
-1.36855e-05
-1.07049e-05
-8.36467e-06
-6.53963e-06
-5.12344e-06
-4.0281e-06
-3.1825e-06
-2.53022e-06
-2.02703e-06
-1.63829e-06
-1.3369e-06
-1.10179e-06
-9.16854e-07
-7.70169e-07
-6.52992e-07
-5.58808e-07
-4.82504e-07
-4.19909e-07
-3.6766e-07
-3.23253e-07
-2.85037e-07
-2.52054e-07
-2.23729e-07
-1.99562e-07
-1.78911e-07
-1.60977e-07
-1.44908e-07
-1.29977e-07
-1.15701e-07
-1.0189e-07
-8.85786e-08
-7.59175e-08
-6.40483e-08
-5.30202e-08
-4.27469e-08
-3.3039e-08
-2.33574e-08
-1.62794e-08
5.12117e-05
5.11856e-05
5.11186e-05
5.1009e-05
5.08517e-05
5.06362e-05
5.03469e-05
4.99636e-05
4.94595e-05
4.87997e-05
4.79391e-05
4.68197e-05
4.53683e-05
4.3493e-05
4.10815e-05
3.79982e-05
3.40846e-05
2.91625e-05
2.30412e-05
1.55341e-05
6.48338e-06
-4.20166e-06
-1.64954e-05
-3.01976e-05
-4.48774e-05
-5.98372e-05
-7.41215e-05
-8.65961e-05
-9.61109e-05
-0.000101729
-0.000102963
-9.99223e-05
-9.32991e-05
-8.41789e-05
-7.37531e-05
-6.30629e-05
-5.28606e-05
-4.35988e-05
-3.54909e-05
-2.85877e-05
-2.28378e-05
-1.81319e-05
-1.43334e-05
-1.13006e-05
-8.89952e-06
-7.01108e-06
-5.5329e-06
-4.3795e-06
-3.48111e-06
-2.78187e-06
-2.23757e-06
-1.81334e-06
-1.48168e-06
-1.22103e-06
-1.01475e-06
-8.50336e-07
-7.18465e-07
-6.12124e-07
-5.25796e-07
-4.54996e-07
-3.96097e-07
-3.46346e-07
-3.03843e-07
-2.67397e-07
-2.36238e-07
-2.09723e-07
-1.87129e-07
-1.67615e-07
-1.50304e-07
-1.34436e-07
-1.19485e-07
-1.05196e-07
-9.15422e-08
-7.86167e-08
-6.65231e-08
-5.52921e-08
-4.48353e-08
-3.49648e-08
-2.51079e-08
-1.76848e-08
5.10941e-05
5.10641e-05
5.09871e-05
5.08616e-05
5.06825e-05
5.04387e-05
5.01139e-05
4.96869e-05
4.91304e-05
4.84087e-05
4.74761e-05
4.62746e-05
4.47315e-05
4.27567e-05
4.02408e-05
3.70535e-05
3.30443e-05
2.80458e-05
2.18825e-05
1.4386e-05
5.41995e-06
-5.08422e-06
-1.70817e-05
-3.03618e-05
-4.44994e-05
-5.88261e-05
-7.24437e-05
-8.43011e-05
-9.33451e-05
-9.87256e-05
-0.000100003
-9.7277e-05
-9.11726e-05
-8.2672e-05
-7.28642e-05
-6.27159e-05
-5.29431e-05
-4.39921e-05
-3.60881e-05
-2.93003e-05
-2.35978e-05
-1.88898e-05
-1.5056e-05
-1.19677e-05
-9.50063e-06
-7.54253e-06
-5.99574e-06
-4.77771e-06
-3.82032e-06
-3.06843e-06
-2.47795e-06
-2.01376e-06
-1.64796e-06
-1.35846e-06
-1.12802e-06
-9.43492e-07
-7.94922e-07
-6.74736e-07
-5.7696e-07
-4.96745e-07
-4.3016e-07
-3.74172e-07
-3.26603e-07
-2.86004e-07
-2.51384e-07
-2.21944e-07
-1.96868e-07
-1.75264e-07
-1.56228e-07
-1.38967e-07
-1.22907e-07
-1.0773e-07
-9.33396e-08
-7.97711e-08
-6.70853e-08
-5.5293e-08
-4.43052e-08
-3.39533e-08
-2.37303e-08
-1.62903e-08
5.09652e-05
5.09308e-05
5.08429e-05
5.07e-05
5.04971e-05
5.02223e-05
4.98586e-05
4.93841e-05
4.87705e-05
4.79814e-05
4.69706e-05
4.56803e-05
4.40383e-05
4.19567e-05
3.93295e-05
3.60324e-05
3.19234e-05
2.68474e-05
2.06448e-05
1.31669e-05
4.29988e-06
-6.0022e-06
-1.76755e-05
-3.05003e-05
-4.40593e-05
-5.77169e-05
-7.06355e-05
-8.18508e-05
-9.04079e-05
-9.55436e-05
-9.68662e-05
-9.44649e-05
-8.88963e-05
-8.10395e-05
-7.18794e-05
-6.23055e-05
-5.29935e-05
-4.4381e-05
-3.67027e-05
-3.00464e-05
-2.44014e-05
-1.96969e-05
-1.58296e-05
-1.26847e-05
-1.01486e-05
-8.11681e-06
-6.49672e-06
-5.2092e-06
-4.18806e-06
-3.37908e-06
-2.73836e-06
-2.23062e-06
-1.82752e-06
-1.50644e-06
-1.24953e-06
-1.04295e-06
-8.76084e-07
-7.40759e-07
-6.305e-07
-5.40057e-07
-4.65161e-07
-4.02469e-07
-3.49509e-07
-3.0455e-07
-2.66366e-07
-2.33984e-07
-2.06474e-07
-1.82884e-07
-1.62271e-07
-1.43803e-07
-1.26853e-07
-1.11037e-07
-9.61882e-08
-8.22748e-08
-6.93113e-08
-5.72818e-08
-4.60885e-08
-3.55615e-08
-2.51666e-08
-1.74254e-08
5.08282e-05
5.07892e-05
5.06897e-05
5.05282e-05
5.03e-05
4.99924e-05
4.95876e-05
4.90628e-05
4.83888e-05
4.75287e-05
4.64359e-05
4.50525e-05
4.33074e-05
4.11148e-05
3.83729e-05
3.49636e-05
3.07542e-05
2.56025e-05
1.93657e-05
1.19151e-05
3.1597e-06
-6.92412e-06
-1.82545e-05
-3.06043e-05
-4.35668e-05
-5.65408e-05
-6.87518e-05
-7.93217e-05
-8.73924e-05
-9.22847e-05
-9.36523e-05
-9.15738e-05
-8.65395e-05
-7.93289e-05
-7.08249e-05
-6.18395e-05
-5.30059e-05
-4.47497e-05
-3.73134e-05
-3.08016e-05
-2.52239e-05
-2.05292e-05
-1.66321e-05
-1.3432e-05
-1.08267e-05
-8.71976e-06
-7.02426e-06
-5.66478e-06
-4.57732e-06
-3.70871e-06
-3.01541e-06
-2.46197e-06
-2.01968e-06
-1.66537e-06
-1.38055e-06
-1.15069e-06
-9.64499e-07
-8.13165e-07
-6.89687e-07
-5.8838e-07
-5.04616e-07
-4.34726e-07
-3.75929e-07