/*--------------------------------*- C++ -*----------------------------------*\
| =========                 |                                                 |
| \\      /  F ield         | OpenFOAM: The Open Source CFD Toolbox           |
|  \\    /   O peration     | Version:  2512                                  |
|   \\  /    A nd           | Website:  www.openfoam.com                      |
|    \\/     M anipulation  |                                                 |
\*---------------------------------------------------------------------------*/
FoamFile
{
    version     2.0;
    format      ascii;
    arch        "LSB;label=32;scalar=64";
    class       volScalarField;
    location    "189";
    object      p;
}
// * * * * * * * * * * * * * * * * * * * * * * * * * * * * * * * * * * * * * //

dimensions      [0 2 -2 0 0 0 0];

internalField   nonuniform List<scalar> 
248793
(
0.000110015
0.000109878
0.000109531
0.000108972
0.000108194
0.000107165
0.00010584
0.000104167
0.000102084
9.95147e-05
9.63724e-05
9.25577e-05
8.79602e-05
8.24612e-05
7.59369e-05
6.82653e-05
5.93346e-05
4.90554e-05
3.73757e-05
2.4298e-05
9.89926e-06
-5.65062e-06
-2.20733e-05
-3.89739e-05
-5.58447e-05
-7.20853e-05
-8.70406e-05
-0.000100056
-0.000110547
-0.000118064
-0.000122354
-0.000123394
-0.000121388
-0.000116733
-0.000109961
-0.000101662
-9.2422e-05
-8.27683e-05
-7.31378e-05
-6.38659e-05
-5.51886e-05
-4.72532e-05
-4.01345e-05
-3.38508e-05
-2.83797e-05
-2.36713e-05
-1.96599e-05
-1.62715e-05
-1.34305e-05
-1.10638e-05
-9.1027e-06
-7.48537e-06
-6.1567e-06
-5.06867e-06
-4.17994e-06
-3.45537e-06
-2.86537e-06
-2.38519e-06
-1.99432e-06
-1.67582e-06
-1.4158e-06
-1.20293e-06
-1.02795e-06
-8.83377e-07
-7.6315e-07
-6.62381e-07
-5.77136e-07
-5.04256e-07
-4.41211e-07
-3.85977e-07
-3.36937e-07
-2.928e-07
-2.52532e-07
-2.1529e-07
-1.80366e-07
-1.47147e-07
-1.15095e-07
-8.37821e-08
-5.27918e-08
-2.38211e-08
0.000110054
0.000109918
0.000109574
0.00010902
0.000108249
0.000107229
0.000105916
0.000104258
0.000102191
9.96406e-05
9.652e-05
9.27294e-05
8.81578e-05
8.26853e-05
7.61871e-05
6.85389e-05
5.96264e-05
4.93569e-05
3.76742e-05
2.45768e-05
1.01376e-05
-5.4767e-06
-2.19893e-05
-3.90042e-05
-5.60088e-05
-7.23942e-05
-8.74929e-05
-0.000100636
-0.000111223
-0.000118793
-0.000123088
-0.000124083
-0.00012199
-0.00011722
-0.000110319
-0.000101892
-9.25364e-05
-8.27854e-05
-7.30792e-05
-6.3753e-05
-5.50406e-05
-4.70863e-05
-3.99614e-05
-3.36807e-05
-2.82188e-05
-2.35237e-05
-1.95274e-05
-1.61549e-05
-1.33294e-05
-1.09772e-05
-9.02943e-06
-7.42393e-06
-6.1056e-06
-5.02647e-06
-4.14533e-06
-3.42716e-06
-2.84249e-06
-2.36674e-06
-1.97952e-06
-1.66401e-06
-1.40643e-06
-1.19552e-06
-1.02214e-06
-8.78852e-07
-7.59654e-07
-6.59706e-07
-5.75113e-07
-5.02751e-07
-4.40113e-07
-3.85198e-07
-3.36405e-07
-2.92458e-07
-2.52332e-07
-2.15195e-07
-1.80347e-07
-1.47186e-07
-1.15183e-07
-8.39144e-08
-5.29679e-08
-2.3969e-08
0.000110129
0.000109996
0.000109658
0.000109115
0.000108359
0.000107357
0.000106067
0.000104436
0.000102401
9.98894e-05
9.68119e-05
9.30689e-05
8.85485e-05
8.3129e-05
7.66826e-05
6.90812e-05
6.02053e-05
4.99553e-05
3.82676e-05
2.5132e-05
1.06134e-05
-5.12819e-06
-2.1819e-05
-3.90607e-05
-5.63316e-05
-7.30056e-05
-8.83905e-05
-0.000101788
-0.000112568
-0.000120246
-0.000124548
-0.000125453
-0.000123187
-0.000118187
-0.000111029
-0.000102348
-9.27615e-05
-8.28174e-05
-7.29611e-05
-6.35275e-05
-5.4746e-05
-4.67547e-05
-3.96177e-05
-3.33432e-05
-2.79e-05
-2.32312e-05
-1.92651e-05
-1.5924e-05
-1.31293e-05
-1.08059e-05
-8.88446e-06
-7.30236e-06
-6.00449e-06
-4.94299e-06
-4.07684e-06
-3.3713e-06
-2.79718e-06
-2.33016e-06
-1.95012e-06
-1.64049e-06
-1.3877e-06
-1.18066e-06
-1.0104e-06
-8.69605e-07
-7.52396e-07
-6.54025e-07
-5.70676e-07
-4.99288e-07
-4.37407e-07
-3.83075e-07
-3.34724e-07
-2.91107e-07
-2.51221e-07
-2.14254e-07
-1.79524e-07
-1.46446e-07
-1.14512e-07
-8.33175e-08
-5.24655e-08
-2.35913e-08
0.00011024
0.00011011
0.000109782
0.000109255
0.000108519
0.000107544
0.000106288
0.000104698
0.000102712
0.000100256
9.72419e-05
9.35695e-05
8.9125e-05
8.37841e-05
7.7415e-05
6.98838e-05
6.1063e-05
5.08434e-05
3.91497e-05
2.59593e-05
1.13246e-05
-4.60439e-06
-2.15588e-05
-3.91374e-05
-5.68052e-05
-7.39103e-05
-8.9724e-05
-0.000103503
-0.000114573
-0.000122412
-0.000126726
-0.000127495
-0.000124968
-0.000119622
-0.00011208
-0.000103018
-9.30879e-05
-8.28571e-05
-7.27792e-05
-6.31877e-05
-5.43055e-05
-4.62607e-05
-3.91071e-05
-3.28429e-05
-2.74281e-05
-2.27988e-05
-1.88779e-05
-1.55834e-05
-1.28343e-05
-1.05537e-05
-8.67109e-06
-7.12356e-06
-5.85588e-06
-4.82037e-06
-3.97633e-06
-3.2894e-06
-2.73081e-06
-2.27668e-06
-1.90724e-06
-1.60629e-06
-1.36057e-06
-1.15928e-06
-9.93646e-07
-8.56582e-07
-7.42361e-07
-6.46374e-07
-5.6492e-07
-4.95033e-07
-4.34334e-07
-3.80926e-07
-3.33292e-07
-2.90223e-07
-2.5075e-07
-2.14086e-07
-1.79575e-07
-1.46658e-07
-1.14851e-07
-8.37691e-08
-5.30076e-08
-2.41219e-08
0.000110383
0.000110259
0.000109943
0.000109436
0.000108727
0.000107788
0.000106575
0.000105037
0.000103114
0.000100731
9.78007e-05
9.42205e-05
8.98754e-05
8.46379e-05
7.83707e-05
7.09325e-05
6.21857e-05
5.20084e-05
4.03098e-05
2.70507e-05
1.22668e-05
-3.90523e-06
-2.1204e-05
-3.92251e-05
-5.74163e-05
-7.50924e-05
-9.14756e-05
-0.000105764
-0.000117221
-0.000125274
-0.000129603
-0.000130188
-0.000127312
-0.000121504
-0.00011345
-0.000103885
-9.35023e-05
-8.2896e-05
-7.25293e-05
-6.27335e-05
-5.37219e-05
-4.56098e-05
-3.84367e-05
-3.21878e-05
-2.68116e-05
-2.22348e-05
-1.83734e-05
-1.51404e-05
-1.2451e-05
-1.02262e-05
-8.39424e-06
-6.89169e-06
-5.66326e-06
-4.66147e-06
-3.84609e-06
-3.18325e-06
-2.64476e-06
-2.20725e-06
-1.85148e-06
-1.5617e-06
-1.32506e-06
-1.1311e-06
-9.71372e-07
-8.39033e-07
-7.28574e-07
-6.35569e-07
-5.56464e-07
-4.88417e-07
-4.2915e-07
-3.76846e-07
-3.30053e-07
-2.87616e-07
-2.48609e-07
-2.12281e-07
-1.78009e-07
-1.45267e-07
-1.13602e-07
-8.26626e-08
-5.20739e-08
-2.34384e-08
0.000110555
0.000110437
0.000110136
0.000109653
0.000108978
0.00010808
0.00010692
0.000105447
0.0001036
0.000101306
9.84759e-05
9.5008e-05
9.07844e-05
8.56734e-05
7.95317e-05
7.2209e-05
6.35553e-05
5.34331e-05
4.1733e-05
2.83948e-05
1.34337e-05
-3.03151e-06
-2.07492e-05
-3.93122e-05
-5.81481e-05
-7.65308e-05
-9.36218e-05
-0.000108544
-0.000120484
-0.000128806
-0.000133152
-0.000133506
-0.000130192
-0.000123807
-0.000115116
-0.000104927
-9.39886e-05
-8.29236e-05
-7.22064e-05
-6.21649e-05
-5.29996e-05
-4.48092e-05
-3.76158e-05
-3.13882e-05
-2.6061e-05
-2.15498e-05
-1.77619e-05
-1.46041e-05
-1.19876e-05
-9.83074e-06
-8.06036e-06
-6.61237e-06
-5.43146e-06
-4.47049e-06
-3.68975e-06
-3.05605e-06
-2.54185e-06
-2.12444e-06
-1.78522e-06
-1.50897e-06
-1.28335e-06
-1.09833e-06
-9.4581e-07
-8.19265e-07
-7.13443e-07
-6.24136e-07
-5.47967e-07
-4.82239e-07
-4.24794e-07
-3.7391e-07
-3.28214e-07
-2.86612e-07
-2.48229e-07
-2.12356e-07
-1.78407e-07
-1.45891e-07
-1.1439e-07
-8.35777e-08
-5.30653e-08
-2.43503e-08
0.000110752
0.00011064
0.000110357
0.000109902
0.000109264
0.000108415
0.000107316
0.000105917
0.000104158
0.000101966
9.92525e-05
9.59148e-05
9.18325e-05
8.68694e-05
8.08753e-05
7.36894e-05
6.51479e-05
5.50949e-05
4.33991e-05
2.99756e-05
1.48146e-05
-1.98671e-06
-2.01898e-05
-3.9386e-05
-5.89801e-05
-7.81987e-05
-9.61312e-05
-0.000111811
-0.000124329
-0.000132972
-0.000137337
-0.000137412
-0.00013357
-0.000126494
-0.000117045
-0.000106119
-9.45272e-05
-8.29279e-05
-7.18062e-05
-6.14838e-05
-5.21454e-05
-4.38694e-05
-3.66571e-05
-3.0458e-05
-2.51906e-05
-2.07574e-05
-1.70559e-05
-1.39861e-05
-1.14545e-05
-9.37637e-06
-7.67712e-06
-6.29201e-06
-5.16575e-06
-4.25164e-06
-3.5106e-06
-2.91021e-06
-2.42373e-06
-2.02922e-06
-1.70878e-06
-1.44787e-06
-1.23469e-06
-1.05971e-06
-9.15266e-07
-7.95174e-07
-6.94487e-07
-6.09245e-07
-5.3628e-07
-4.73064e-07
-4.17575e-07
-3.68206e-07
-3.23672e-07
-2.82955e-07
-2.45236e-07
-2.09858e-07
-1.76275e-07
-1.44036e-07
-1.1276e-07
-8.21567e-08
-5.18775e-08
-2.34878e-08
0.000110968
0.000110864
0.000110601
0.000110175
0.000109579
0.000108785
0.000107752
0.000106435
0.000104774
0.000102695
0.000100113
9.69206e-05
9.29969e-05
8.82007e-05
8.23741e-05
7.5345e-05
6.69341e-05
5.69651e-05
4.52818e-05
3.17712e-05
1.63942e-05
-7.77798e-07
-1.95231e-05
-3.9433e-05
-5.98887e-05
-8.00635e-05
-9.89641e-05
-0.000115519
-0.000128708
-0.000137723
-0.000142109
-0.000141856
-0.000137398
-0.00012952
-0.000119198
-0.00010743
-9.50971e-05
-8.28976e-05
-7.1326e-05
-6.06949e-05
-5.11696e-05
-4.28045e-05
-3.55768e-05
-2.94145e-05
-2.42176e-05
-1.98741e-05
-1.6271e-05
-1.33005e-05
-1.08641e-05
-8.87406e-06
-7.25415e-06
-5.93903e-06
-4.87351e-06
-4.01139e-06
-3.31439e-06
-2.75093e-06
-2.29518e-06
-1.92607e-06
-1.6265e-06
-1.38264e-06
-1.18333e-06
-1.01958e-06
-8.84172e-07
-7.71336e-07
-6.76445e-07
-5.95812e-07
-5.26495e-07
-4.66148e-07
-4.12902e-07
-3.65269e-07
-3.22064e-07
-2.82346e-07
-2.45364e-07
-2.1051e-07
-1.77284e-07
-1.45275e-07
-1.14137e-07
-8.36076e-08
-5.33224e-08
-2.4732e-08
0.000111198
0.000111103
0.00011086
0.000110467
0.000109916
0.000109179
0.000108219
0.00010699
0.000105433
0.000103478
0.000101036
9.80023e-05
9.42514e-05
8.96379e-05
8.3996e-05
7.71415e-05
6.88785e-05
5.90086e-05
4.73483e-05
3.37531e-05
1.8151e-05
5.82973e-07
-1.87496e-05
-3.94409e-05
-6.0848e-05
-8.20868e-05
-0.000102072
-0.000119611
-0.000133558
-0.000142994
-0.000147401
-0.000146773
-0.000141616
-0.000132832
-0.000121531
-0.000108825
-9.56766e-05
-8.28225e-05
-7.07658e-05
-5.98064e-05
-5.00862e-05
-4.16323e-05
-3.43951e-05
-2.82783e-05
-2.31621e-05
-1.89189e-05
-1.54243e-05
-1.25626e-05
-1.02298e-05
-8.33521e-06
-6.80093e-06
-5.56111e-06
-4.56073e-06
-3.75425e-06
-3.10424e-06
-2.5801e-06
-2.15699e-06
-1.81477e-06
-1.53724e-06
-1.31132e-06
-1.12654e-06
-9.74508e-07
-8.48508e-07
-7.43183e-07
-6.54265e-07
-5.78363e-07
-5.12776e-07
-4.55359e-07
-4.04404e-07
-3.58553e-07
-3.1673e-07
-2.78079e-07
-2.41916e-07
-2.07691e-07
-1.74949e-07
-1.43316e-07
-1.12487e-07
-8.2229e-08
-5.22157e-08
-2.39598e-08
0.000111436
0.000111349
0.000111128
0.000110769
0.000110265
0.000109588
0.000108704
0.000107567
0.000106121
0.000104294
0.000102001
9.91343e-05
9.55668e-05
9.11482e-05
8.57046e-05
7.90396e-05
7.09397e-05
6.11835e-05
4.95581e-05
3.58851e-05
2.00556e-05
2.07681e-06
-1.78749e-05
-3.93996e-05
-6.18311e-05
-8.42249e-05
-0.000105395
-0.000124018
-0.000138802
-0.000148702
-0.000153131
-0.000152084
-0.00014615
-0.000136366
-0.000123992
-0.000110269
-9.62447e-05
-8.26956e-05
-7.01299e-05
-5.88313e-05
-4.89144e-05
-4.03758e-05
-3.31365e-05
-2.70742e-05
-2.2048e-05
-1.79142e-05
-1.45365e-05
-1.17907e-05
-9.56799e-06
-7.77428e-06
-6.33022e-06
-5.16955e-06
-4.23755e-06
-3.48939e-06
-2.88859e-06
-2.40562e-06
-2.01668e-06
-1.70265e-06
-1.44822e-06
-1.24114e-06
-1.07165e-06
-9.31961e-07
-8.15882e-07
-7.18491e-07
-6.35889e-07
-5.64985e-07
-5.03333e-07
-4.4899e-07
-4.00414e-07
-3.56385e-07
-3.15933e-07
-2.78293e-07
-2.42853e-07
-2.0912e-07
-1.76686e-07
-1.45217e-07
-1.14441e-07
-8.4153e-08
-5.40104e-08
-2.54216e-08
0.000111677
0.000111598
0.000111399
0.000111075
0.000110618
0.000110003
0.000109195
0.000108152
0.000106819
0.000105125
0.000102984
0.000100289
9.69113e-05
9.26955e-05
8.74595e-05
8.09951e-05
7.30708e-05
6.34413e-05
5.18635e-05
3.81226e-05
2.20707e-05
3.67696e-06
-1.6911e-05
-3.93026e-05
-6.28108e-05
-8.64294e-05
-0.000108866
-0.000128653
-0.000144341
-0.000154745
-0.000159194
-0.00015769
-0.000150911
-0.000140048
-0.000126526
-0.000111725
-9.67827e-05
-8.25137e-05
-6.94279e-05
-5.77882e-05
-4.76786e-05
-3.90625e-05
-3.18293e-05
-2.58299e-05
-2.09014e-05
-1.68836e-05
-1.36282e-05
-1.1003e-05
-8.89376e-06
-7.20362e-06
-5.8518e-06
-4.77175e-06
-3.90916e-06
-3.22002e-06
-2.66889e-06
-2.22735e-06
-1.87269e-06
-1.58685e-06
-1.35544e-06
-1.16709e-06
-1.01274e-06
-8.85239e-07
-7.78928e-07
-6.89333e-07
-6.12927e-07
-5.46932e-07
-4.89156e-07
-4.37864e-07
-3.91683e-07
-3.49529e-07
-3.10545e-07
-2.74053e-07
-2.39513e-07
-2.06486e-07
-1.74608e-07
-1.43584e-07
-1.13171e-07
-8.31887e-08
-5.33181e-08
-2.49971e-08
0.000111913
0.000111843
0.000111665
0.000111375
0.000110965
0.000110411
0.00010968
0.000108731
0.000107509
0.000105947
0.000103959
0.000101438
9.82513e-05
9.4241e-05
8.92173e-05
8.29597e-05
7.52194e-05
6.57271e-05
5.42089e-05
4.04128e-05
2.41496e-05
5.34776e-06
-1.58775e-05
-3.9149e-05
-6.37617e-05
-8.8648e-05
-0.000112406
-0.000133417
-0.000150058
-0.000160994
-0.000165463
-0.000163471
-0.000155796
-0.000143795
-0.000129073
-0.000113157
-9.72756e-05
-8.22796e-05
-6.86756e-05
-5.6702e-05
-4.6409e-05
-3.7725e-05
-3.05068e-05
-2.45775e-05
-1.97523e-05
-1.58547e-05
-1.27244e-05
-1.02216e-05
-8.22692e-06
-6.6409e-06
-5.38153e-06
-4.3821e-06
-3.5888e-06
-2.95851e-06
-2.45685e-06
-2.05656e-06
-1.73604e-06
-1.47826e-06
-1.2698e-06
-1.1001e-06
-9.60846e-07
-8.45494e-07
-7.48906e-07
-6.67052e-07
-5.96774e-07
-5.35599e-07
-4.81586e-07
-4.33205e-07
-3.8925e-07
-3.48772e-07
-3.11023e-07
-2.75417e-07
-2.41482e-07
-2.08837e-07
-1.77162e-07
-1.46197e-07
-1.1573e-07
-8.56008e-08
-5.54775e-08
-2.66963e-08
0.000112138
0.000112076
0.000111919
0.000111663
0.000111298
0.000110803
0.000110146
0.000109287
0.000108175
0.000106741
0.000104902
0.00010255
9.95519e-05
9.57447e-05
9.0932e-05
8.4882e-05
7.73291e-05
6.79806e-05
5.65322e-05
4.26947e-05
2.62368e-05
7.04426e-06
-1.48028e-05
-3.89444e-05
-6.46611e-05
-9.08267e-05
-0.000115929
-0.000138193
-0.000155817
-0.000167303
-0.000171791
-0.000169291
-0.000160689
-0.000147517
-0.000131571
-0.000114531
-9.77136e-05
-8.20021e-05
-6.78953e-05
-5.56034e-05
-4.51409e-05
-3.63999e-05
-2.92044e-05
-2.33501e-05
-1.86306e-05
-1.48534e-05
-1.18472e-05
-9.46468e-06
-7.58205e-06
-6.09729e-06
-4.92744e-06
-4.00577e-06
-3.27906e-06
-2.70514e-06
-2.25073e-06
-1.88971e-06
-1.60158e-06
-1.37036e-06
-1.18355e-06
-1.0314e-06
-9.0631e-07
-8.02334e-07
-7.14844e-07
-6.40235e-07
-5.75706e-07
-5.1908e-07
-4.68655e-07
-4.23097e-07
-3.81359e-07
-3.42619e-07
-3.06235e-07
-2.71703e-07
-2.38616e-07
-2.06641e-07
-1.75498e-07
-1.44955e-07
-1.14823e-07
-8.49642e-08
-5.50566e-08
-2.64568e-08
0.000112347
0.000112293
0.000112155
0.00011193
0.000111608
0.000111168
0.000110581
0.000109808
0.000108798
0.000107486
0.000105788
0.000103597
0.000100778
9.71658e-05
9.25567e-05
8.67086e-05
7.93405e-05
7.01374e-05
5.8766e-05
4.49008e-05
2.82687e-05
8.71272e-06
-1.37241e-05
-3.8702e-05
-6.54911e-05
-9.29109e-05
-0.000119342
-0.000142854
-0.000161461
-0.000173499
-0.000178006
-0.000174993
-0.000165458
-0.000151117
-0.00013396
-0.000115817
-9.80932e-05
-8.16974e-05
-6.71163e-05
-5.45296e-05
-4.3915e-05
-3.51286e-05
-2.79623e-05
-2.21852e-05
-1.75706e-05
-1.39108e-05
-1.10245e-05
-8.75732e-06
-6.98158e-06
-5.59308e-06
-4.50808e-06
-3.65995e-06
-2.99613e-06
-2.47538e-06
-2.06549e-06
-1.74144e-06
-1.4838e-06
-1.27756e-06
-1.1111e-06
-9.75434e-07
-8.63625e-07
-7.70292e-07
-6.9128e-07
-6.23382e-07
-5.64132e-07
-5.11626e-07
-4.64389e-07
-4.2127e-07
-3.81369e-07
-3.43989e-07
-3.08585e-07
-2.74732e-07
-2.42086e-07
-2.10361e-07
-1.79313e-07
-1.48739e-07
-1.18474e-07
-8.8392e-08
-5.81383e-08
-2.89038e-08
0.000112533
0.000112486
0.000112366
0.000112169
0.000111886
0.000111497
0.000110973
0.000110278
0.000109362
0.000108161
0.000106592
0.000104549
0.000101896
9.84641e-05
9.40446e-05
8.83862e-05
8.11934e-05
7.21315e-05
6.08397e-05
4.69588e-05
3.01758e-05
1.02921e-05
-1.26864e-05
-3.84422e-05
-6.62392e-05
-9.48482e-05
-0.00012255
-0.000147262
-0.000166821
-0.000179395
-0.00018392
-0.000180408
-0.000169967
-0.000154496
-0.000136178
-0.000116991
-9.84171e-05
-8.13877e-05
-6.63731e-05
-5.35213e-05
-4.27742e-05
-3.3953e-05
-2.68192e-05
-2.11174e-05
-1.6602e-05
-1.3052e-05
-1.02764e-05
-8.11522e-06
-6.43712e-06
-5.13615e-06
-4.12798e-06
-3.34621e-06
-2.7389e-06
-2.26576e-06
-1.8956e-06
-1.60443e-06
-1.3738e-06
-1.18962e-06
-1.04105e-06
-9.19845e-07
-8.19646e-07
-7.3559e-07
-6.63952e-07
-6.01888e-07
-5.47233e-07
-4.98332e-07
-4.5391e-07
-4.12982e-07
-3.74779e-07
-3.38711e-07
-3.0432e-07
-2.71249e-07
-2.39205e-07
-2.07944e-07
-1.77247e-07
-1.46936e-07
-1.16863e-07
-8.69218e-08
-5.67943e-08
-2.78e-08
0.000112692
0.000112652
0.000112547
0.000112374
0.000112125
0.00011178
0.000111311
0.000110684
0.00010985
0.000108747
0.000107292
0.00010538
0.000102873
9.96014e-05
9.53512e-05
8.98631e-05
8.28293e-05
7.38974e-05
6.26827e-05
4.87951e-05
3.18856e-05
1.17169e-05
-1.17407e-05
-3.81923e-05
-6.6899e-05
-9.65902e-05
-0.000125456
-0.000151275
-0.000171718
-0.000184792
-0.000189333
-0.000185355
-0.000174071
-0.000157555
-0.000138171
-0.000118033
-9.86948e-05
-8.11012e-05
-6.57052e-05
-5.26237e-05
-4.17648e-05
-3.29179e-05
-2.58173e-05
-2.01853e-05
-1.57598e-05
-1.2308e-05
-9.63103e-06
-7.56367e-06
-5.97164e-06
-4.7476e-06
-3.8068e-06
-3.08309e-06
-2.52518e-06
-2.09359e-06
-1.75808e-06
-1.49555e-06
-1.28845e-06
-1.12346e-06
-9.90462e-07
-8.81811e-07
-7.91682e-07
-7.15651e-07
-6.50366e-07
-5.933e-07
-5.42546e-07
-4.96667e-07
-4.54562e-07
-4.15388e-07
-3.78492e-07
-3.43376e-07
-3.09657e-07
-2.77038e-07
-2.45275e-07
-2.14154e-07
-1.83487e-07
-1.53112e-07
-1.22897e-07
-9.27319e-08
-6.21971e-08
-3.22271e-08
0.00011282
0.000112784
0.000112692
0.00011254
0.000112319
0.00011201
0.000111587
0.000111016
0.000110251
0.000109228
0.000107869
0.000106065
0.000103681
0.000100543
9.64356e-05
9.10916e-05
8.41935e-05
7.53737e-05
6.42275e-05
5.03385e-05
3.33268e-05
1.29209e-05
-1.09404e-05
-3.79835e-05
-6.74696e-05
-9.80943e-05
-0.000127971
-0.000154757
-0.000175975
-0.000189489
-0.000194045
-0.000189657
-0.000177631
-0.0001602
-0.000139889
-0.000118932
-9.89398e-05
-8.08682e-05
-6.51519e-05
-5.18795e-05
-4.09292e-05
-3.2063e-05
-2.49917e-05
-1.94191e-05
-1.50691e-05
-1.16991e-05
-9.10366e-06
-7.11357e-06
-5.59216e-06
-4.43095e-06
-3.54494e-06
-2.86824e-06
-2.35013e-06
-1.95186e-06
-1.64396e-06
-1.40413e-06
-1.21553e-06
-1.06551e-06
-9.44564e-07
-8.45531e-07
-7.63024e-07
-6.92986e-07
-6.32372e-07
-5.78912e-07
-5.30919e-07
-4.87129e-07
-4.46587e-07
-4.08562e-07
-3.72495e-07
-3.37961e-07
-3.04637e-07
-2.72274e-07
-2.4066e-07
-2.09612e-07
-1.78958e-07
-1.48553e-07
-1.1828e-07
-8.8059e-08
-5.75968e-08
-2.82784e-08
0.000112912
0.00011288
0.000112798
0.000112661
0.000112461
0.000112179
0.000111792
0.000111264
0.000110551
0.000109591
0.000108304
0.000106583
0.000104294
0.00010126
9.72627e-05
9.20306e-05
8.5238e-05
7.6506e-05
6.54138e-05
5.15248e-05
3.44338e-05
1.38423e-05
-1.03368e-05
-3.78481e-05
-6.79543e-05
-9.93253e-05
-0.000130014
-0.000157581
-0.000179426
-0.000193298
-0.000197868
-0.000193145
-0.000180518
-0.000162347
-0.000141291
-0.000119679
-9.91687e-05
-8.07203e-05
-6.47527e-05
-5.13309e-05
-4.03092e-05
-3.14278e-05
-2.43789e-05
-1.88515e-05
-1.45591e-05
-1.12515e-05
-8.71815e-06
-6.78673e-06
-5.31882e-06
-4.20514e-06
-3.36053e-06
-2.71929e-06
-2.23117e-06
-1.85799e-06
-1.57088e-06
-1.34813e-06
-1.17346e-06
-1.03474e-06
-9.22889e-07
-8.31141e-07
-7.5443e-07
-6.88968e-07
-6.31941e-07
-5.81272e-07
-5.35432e-07
-4.93294e-07
-4.54005e-07
-4.16921e-07
-3.81547e-07
-3.47512e-07
-3.14537e-07
-2.82405e-07
-2.50931e-07
-2.19952e-07
-1.8931e-07
-1.58871e-07
-1.28518e-07
-9.814e-08
-6.72122e-08
-3.63129e-08
0.000112965
0.000112936
0.00011286
0.000112734
0.000112547
0.000112284
0.00011192
0.000111421
0.000110742
0.000109823
0.000108584
0.00010692
0.000104693
0.000101728
9.78044e-05
9.26468e-05
8.59243e-05
7.72502e-05
6.61927e-05
5.23007e-05
3.51521e-05
1.44289e-05
-9.97428e-06
-3.78152e-05
-6.83582e-05
-0.000100256
-0.000131518
-0.000159639
-0.000181931
-0.000196058
-0.000200637
-0.000195677
-0.000182622
-0.000163926
-0.000142343
-0.000120271
-9.93968e-05
-8.06838e-05
-6.4539e-05
-5.10106e-05
-3.99361e-05
-3.10403e-05
-2.40027e-05
-1.85026e-05
-1.42458e-05
-1.0977e-05
-8.48255e-06
-6.5878e-06
-5.1532e-06
-4.06894e-06
-3.24973e-06
-2.63004e-06
-2.1599e-06
-1.80151e-06
-1.52642e-06
-1.31331e-06
-1.14628e-06
-1.01352e-06
-9.06255e-07
-8.17967e-07
-7.43801e-07
-6.80146e-07
-6.24337e-07
-5.74424e-07
-5.28987e-07
-4.86983e-07
-4.47631e-07
-4.1034e-07
-3.74656e-07
-3.40243e-07
-3.06847e-07
-2.74272e-07
-2.42351e-07
-2.10931e-07
-1.79864e-07
-1.49024e-07
-1.18307e-07
-8.76534e-08
-5.68224e-08
-2.73946e-08
0.000112979
0.000112951
0.000112878
0.000112756
0.000112576
0.000112321
0.000111967
0.000111481
0.000110818
0.000109918
0.000108701
0.000107063
0.000104865
0.000101932
9.80414e-05
9.29173e-05
8.62257e-05
7.75755e-05
6.65293e-05
5.26288e-05
3.54427e-05
1.46431e-05
-9.88498e-06
-3.79062e-05
-6.86855e-05
-0.000100867
-0.000132437
-0.000160854
-0.000183384
-0.000197648
-0.000202231
-0.000197144
-0.00018386
-0.000164885
-0.000143023
-0.000120705
-9.96359e-05
-8.07791e-05
-6.45352e-05
-5.09441e-05
-3.98345e-05
-3.09237e-05
-2.38847e-05
-1.83916e-05
-1.41466e-05
-1.0892e-05
-8.41212e-06
-6.53138e-06
-5.10959e-06
-4.03663e-06
-3.22713e-06
-2.61558e-06
-2.15217e-06
-1.79925e-06
-1.52852e-06
-1.31885e-06
-1.15449e-06
-1.02379e-06
-9.18086e-07
-8.30964e-07
-7.57651e-07
-6.94605e-07
-6.39216e-07
-5.89583e-07
-5.44324e-07
-5.02429e-07
-4.63141e-07
-4.25884e-07
-3.90218e-07
-3.55814e-07
-3.22425e-07
-2.89859e-07
-2.57952e-07
-2.26554e-07
-1.95518e-07
-1.64712e-07
-1.34019e-07
-1.03306e-07
-7.19298e-08
-4.01104e-08
0.000112951
0.000112923
0.000112849
0.000112726
0.000112544
0.000112288
0.000111931
0.000111442
0.000110776
0.000109872
0.00010865
0.000107006
0.000104802
0.000101863
9.7964e-05
9.28307e-05
8.61285e-05
7.74663e-05
6.64063e-05
5.249e-05
3.52859e-05
1.4466e-05
-1.00848e-05
-3.8131e-05
-6.8937e-05
-0.000101145
-0.000132742
-0.000161181
-0.000183728
-0.000197999
-0.000202582
-0.000197486
-0.000184188
-0.000165195
-0.000143315
-0.000120978
-9.98906e-05
-8.10146e-05
-6.47516e-05
-5.11418e-05
-4.00142e-05
-3.10864e-05
-2.40313e-05
-1.85234e-05
-1.42647e-05
-1.09974e-05
-8.50595e-06
-6.61468e-06
-5.1833e-06
-4.10162e-06
-3.28421e-06
-2.66548e-06
-2.19555e-06
-1.83671e-06
-1.56061e-06
-1.34605e-06
-1.17726e-06
-1.04252e-06
-9.33141e-07
-8.42665e-07
-7.66283e-07
-7.00423e-07
-6.42449e-07
-5.90438e-07
-5.42991e-07
-4.99082e-07
-4.5794e-07
-4.18979e-07
-3.81747e-07
-3.45906e-07
-3.112e-07
-2.77433e-07
-2.44435e-07
-2.12051e-07
-1.80129e-07
-1.48536e-07
-1.17163e-07
-8.59523e-08
-5.4731e-08
-2.53668e-08
0.000112883
0.000112853
0.000112775
0.000112645
0.000112454
0.000112185
0.000111813
0.000111305
0.000110616
0.000109685
0.000108432
0.000106752
0.000104506
0.000101521
9.75727e-05
9.23874e-05
8.56335e-05
7.69233e-05
6.58246e-05
5.18856e-05
3.46833e-05
1.38995e-05
-1.05714e-05
-3.84866e-05
-6.91086e-05
-0.000101087
-0.000132426
-0.000160613
-0.000182953
-0.000197104
-0.000201681
-0.000196696
-0.000183598
-0.000164851
-0.000143215
-0.000121087
-0.000100157
-8.13874e-05
-6.51859e-05
-5.1602e-05
-4.04741e-05
-3.15279e-05
-2.44431e-05
-1.88991e-05
-1.46019e-05
-1.12963e-05
-8.76826e-06
-6.84316e-06
-5.38119e-06
-4.27231e-06
-3.43104e-06
-2.79161e-06
-2.30387e-06
-1.92982e-06
-1.64081e-06
-1.41537e-06
-1.23744e-06
-1.09506e-06
-9.79338e-07
-8.83608e-07
-8.02897e-07
-7.33488e-07
-6.72619e-07
-6.18261e-07
-5.68925e-07
-5.23508e-07
-4.81178e-07
-4.41294e-07
-4.03362e-07
-3.67007e-07
-3.31941e-07
-2.97944e-07
-2.64828e-07
-2.32418e-07
-2.00547e-07
-1.69063e-07
-1.3782e-07
-1.06652e-07
-7.48187e-08
-4.23199e-08
0.000112775
0.000112741
0.000112656
0.000112513
0.000112305
0.000112014
0.000111614
0.000111072
0.000110342
0.000109362
0.000108051
0.000106304
0.000103984
0.000100916
9.6878e-05
9.16002e-05
8.47554e-05
7.59639e-05
6.48036e-05
5.08368e-05
3.36575e-05
1.29664e-05
-1.13239e-05
-3.89567e-05
-6.91918e-05
-0.000100694
-0.000131506
-0.000159181
-0.000181104
-0.000195016
-0.000199583
-0.00019482
-0.000182125
-0.000163871
-0.000142728
-0.000121026
-0.000100424
-8.18818e-05
-6.58209e-05
-5.23078e-05
-4.11983e-05
-3.22336e-05
-2.51065e-05
-1.95065e-05
-1.5147e-05
-1.17779e-05
-9.18855e-06
-7.20622e-06
-5.6922e-06
-4.53687e-06
-3.65471e-06
-2.97968e-06
-2.46119e-06
-2.06075e-06
-1.74919e-06
-1.50455e-06
-1.31029e-06
-1.15405e-06
-1.02654e-06
-9.20781e-07
-8.3152e-07
-7.548e-07
-6.87658e-07
-6.27895e-07
-5.73878e-07
-5.24388e-07
-4.78496e-07
-4.35486e-07
-3.94797e-07
-3.56005e-07
-3.1878e-07
-2.82868e-07
-2.48055e-07
-2.14146e-07
-1.80955e-07
-1.48314e-07
-1.16082e-07
-8.41841e-08
-5.24932e-08
-2.31519e-08
0.000112629
0.000112591
0.000112495
0.000112334
0.000112102
0.000111779
0.00011134
0.000110749
0.00010996
0.00010891
0.000107517
0.000105677
0.00010325
0.000100064
9.59005e-05
9.04931e-05
8.35225e-05
7.46202e-05
6.33798e-05
4.93837e-05
3.22504e-05
1.17077e-05
-1.23056e-05
-3.95142e-05
-6.91753e-05
-9.99768e-05
-0.000130021
-0.000156951
-0.000178274
-0.000191842
-0.000196396
-0.000191955
-0.00017984
-0.000162298
-0.000141869
-0.000120789
-0.000100672
-8.24723e-05
-6.66284e-05
-5.32309e-05
-4.21602e-05
-3.31797e-05
-2.60011e-05
-2.03285e-05
-1.58864e-05
-1.2432e-05
-9.7596e-06
-7.69964e-06
-6.11503e-06
-4.89683e-06
-3.95958e-06
-3.23689e-06
-2.67761e-06
-2.24254e-06
-1.90182e-06
-1.63277e-06
-1.4182e-06
-1.24514e-06
-1.10376e-06
-9.86633e-07
-8.88089e-07
-8.03828e-07
-7.30594e-07
-6.65936e-07
-6.08012e-07
-5.55429e-07
-5.07112e-07
-4.62227e-07
-4.20117e-07
-3.80274e-07
-3.42305e-07
-3.05903e-07
-2.70807e-07
-2.36789e-07
-2.0363e-07
-1.71129e-07
-1.39098e-07
-1.07323e-07
-7.50244e-08
-4.22073e-08
0.000112449
0.000112406
0.000112295
0.000112112
0.000111849
0.000111486
0.000110997
0.000110344
0.000109479
0.000108341
0.000106845
0.000104885
0.000102324
9.899e-05
9.4669e-05
8.91002e-05
8.19746e-05
7.2938e-05
6.16042e-05
4.75814e-05
3.05191e-05
1.01791e-05
-1.3468e-05
-4.0125e-05
-6.90478e-05
-9.89564e-05
-0.000128027
-0.000154022
-0.000174593
-0.000187733
-0.000192274
-0.000188234
-0.000176843
-0.000160194
-0.000140664
-0.000120374
-0.000100879
-8.31265e-05
-6.7571e-05
-5.43329e-05
-4.3323e-05
-3.43325e-05
-2.70966e-05
-2.13386e-05
-1.67966e-05
-1.32377e-05
-1.04629e-05
-8.30661e-06
-6.63392e-06
-5.33695e-06
-4.33039e-06
-3.54748e-06
-2.93639e-06
-2.4571e-06
-2.07886e-06
-1.77811e-06
-1.53686e-06
-1.34139e-06
-1.1812e-06
-1.04829e-06
-9.36484e-07
-8.41073e-07
-7.58436e-07
-6.85822e-07
-6.21137e-07
-5.6278e-07
-5.09509e-07
-4.60351e-07
-4.1454e-07
-3.71474e-07
-3.30687e-07
-2.91812e-07
-2.54543e-07
-2.18612e-07
-1.83771e-07
-1.49797e-07
-1.16498e-07
-8.37558e-08
-5.14402e-08
-2.18488e-08
0.000112239
0.000112189
0.000112061
0.000111852
0.000111552
0.000111142
0.000110592
0.000109865
0.000108913
0.000107669
0.000106051
0.00010395
0.000101232
9.77246e-05
9.32197e-05
8.7464e-05
8.01607e-05
7.09731e-05
5.95387e-05
4.54964e-05
2.85318e-05
8.44536e-06
-1.47563e-05
-4.07527e-05
-6.88012e-05
-9.76618e-05
-0.0001256
-0.000150513
-0.00017022
-0.000182871
-0.000187398
-0.000183818
-0.000173258
-0.000157635
-0.000139148
-0.000119784
-0.000101026
-8.38093e-05
-6.86066e-05
-5.55699e-05
-4.46439e-05
-3.56523e-05
-2.83578e-05
-2.2506e-05
-1.78517e-05
-1.4174e-05
-1.12816e-05
-9.01413e-06
-7.23961e-06
-5.85148e-06
-4.76475e-06
-3.91231e-06
-3.24161e-06
-2.71169e-06
-2.29078e-06
-1.95433e-06
-1.68339e-06
-1.46333e-06
-1.2829e-06
-1.13339e-06
-1.00805e-06
-9.01636e-07
-8.10109e-07
-7.30349e-07
-6.59952e-07
-5.97064e-07
-5.40232e-07
-4.8831e-07
-4.40387e-07
-3.95746e-07
-3.5382e-07
-3.14162e-07
-2.76402e-07
-2.40221e-07
-2.05323e-07
-1.71446e-07
-1.38342e-07
-1.05751e-07
-7.29065e-08
-4.00428e-08
0.000112004
0.000111946
0.000111799
0.000111559
0.000111218
0.000110754
0.000110136
0.000109327
0.000108274
0.000106912
0.000105156
0.000102898
0.000100003
9.63028e-05
9.15943e-05
8.56332e-05
7.81367e-05
6.87883e-05
5.72524e-05
4.32017e-05
2.63618e-05
6.57512e-06
-1.61142e-05
-4.13626e-05
-6.84328e-05
-9.61321e-05
-0.000122825
-0.000146558
-0.000165328
-0.000177452
-0.000181964
-0.000178882
-0.000169219
-0.000154712
-0.000137368
-0.000119026
-0.000101095
-8.44865e-05
-6.9692e-05
-5.68949e-05
-4.60764e-05
-3.70951e-05
-2.97446e-05
-2.37952e-05
-1.90205e-05
-1.52134e-05
-1.21919e-05
-9.80149e-06
-7.91374e-06
-6.42378e-06
-5.24713e-06
-4.31641e-06
-3.57832e-06
-2.99089e-06
-2.52127e-06
-2.14378e-06
-1.8384e-06
-1.58955e-06
-1.3851e-06
-1.21555e-06
-1.07351e-06
-9.53176e-07
-8.50017e-07
-7.60515e-07
-6.81932e-07
-6.12136e-07
-5.49447e-07
-4.92535e-07
-4.40338e-07
-3.92016e-07
-3.46901e-07
-3.04465e-07
-2.64272e-07
-2.2595e-07
-1.89166e-07
-1.53625e-07
-1.1907e-07
-8.53219e-08
-5.21907e-08
-2.19721e-08
0.000111748
0.000111682
0.000111514
0.000111242
0.000110855
0.000110332
0.00010964
0.00010874
0.000107579
0.000106088
0.000104183
0.000101755
9.867e-05
9.47637e-05
8.98383e-05
8.36604e-05
7.59626e-05
6.64503e-05
5.48173e-05
4.07727e-05
2.40836e-05
4.6359e-06
-1.74887e-05
-4.19257e-05
-6.79471e-05
-9.44137e-05
-0.000119796
-0.000142297
-0.000160095
-0.000171675
-0.000176172
-0.000173602
-0.000164867
-0.000151521
-0.000135374
-0.000118117
-0.000101073
-8.51283e-05
-7.07864e-05
-5.8262e-05
-4.75737e-05
-3.86163e-05
-3.12158e-05
-2.51691e-05
-2.02708e-05
-1.63285e-05
-1.31708e-05
-1.06498e-05
-8.64127e-06
-7.04236e-06
-5.76935e-06
-4.7547e-06
-3.94439e-06
-3.29546e-06
-2.77389e-06
-2.35284e-06
-2.01117e-06
-1.73224e-06
-1.50297e-06
-1.31305e-06
-1.15435e-06
-1.02045e-06
-9.06303e-07
-8.07937e-07
-7.22241e-07
-6.46772e-07
-5.79593e-07
-5.19165e-07
-4.64251e-07
-4.13866e-07
-3.67222e-07
-3.23693e-07
-2.82761e-07
-2.43988e-07
-2.06987e-07
-1.71415e-07
-1.36957e-07
-1.03308e-07
-6.97477e-08
-3.68693e-08
0.000111478
0.000111403
0.000111214
0.000110906
0.000110471
0.000109886
0.000109117
0.000108121
0.000106845
0.000105219
0.000103158
0.000100551
9.72685e-05
9.3148e-05
8.79992e-05
8.15999e-05
7.36993e-05
6.40265e-05
5.23054e-05
3.82827e-05
2.1768e-05
2.69018e-06
-1.88333e-05
-4.242e-05
-6.73556e-05
-9.25588e-05
-0.00011661
-0.000137868
-0.000154691
-0.000165728
-0.00017021
-0.00016815
-0.000160342
-0.00014816
-0.000133227
-0.000117082
-0.000100957
-8.57108e-05
-7.18535e-05
-5.96286e-05
-4.90907e-05
-4.01713e-05
-3.27294e-05
-2.65898e-05
-2.15686e-05
-1.74895e-05
-1.41923e-05
-1.15366e-05
-9.40272e-06
-7.69023e-06
-6.31638e-06
-5.21358e-06
-4.32719e-06
-3.61323e-06
-3.03653e-06
-2.56906e-06
-2.18848e-06
-1.87709e-06
-1.62081e-06
-1.40847e-06
-1.23117e-06
-1.08185e-06
-9.54907e-07
-8.45914e-07
-7.51367e-07