/*--------------------------------*- C++ -*----------------------------------*\
| =========                 |                                                 |
| \\      /  F ield         | OpenFOAM: The Open Source CFD Toolbox           |
|  \\    /   O peration     | Version:  2512                                  |
|   \\  /    A nd           | Website:  www.openfoam.com                      |
|    \\/     M anipulation  |                                                 |
\*---------------------------------------------------------------------------*/
FoamFile
{
    version     2.0;
    format      ascii;
    arch        "LSB;label=32;scalar=64";
    class       volScalarField;
    location    "100";
    object      p;
}
// * * * * * * * * * * * * * * * * * * * * * * * * * * * * * * * * * * * * * //

dimensions      [0 2 -2 0 0 0 0];

internalField   nonuniform List<scalar> 
229904
(
3.68724e-05
3.68215e-05
3.66914e-05
3.64823e-05
3.61904e-05
3.58034e-05
3.53048e-05
3.46749e-05
3.38906e-05
3.29245e-05
3.17452e-05
3.03169e-05
2.86002e-05
2.65527e-05
2.41306e-05
2.12908e-05
1.79947e-05
1.42123e-05
9.92786e-06
5.14607e-06
-1.01008e-07
-5.74658e-06
-1.16837e-05
-1.77627e-05
-2.3793e-05
-2.95515e-05
-3.47978e-05
-3.92949e-05
-4.28347e-05
-4.52627e-05
-4.64983e-05
-4.65462e-05
-4.5494e-05
-4.34984e-05
-4.07612e-05
-3.75028e-05
-3.39375e-05
-3.02556e-05
-2.6613e-05
-2.31277e-05
-1.98812e-05
-1.69229e-05
-1.42763e-05
-1.19449e-05
-9.91807e-06
-8.17586e-06
-6.69301e-06
-5.44186e-06
-4.39444e-06
-3.52388e-06
-2.8053e-06
-2.21629e-06
-1.73709e-06
-1.35059e-06
-1.04211e-06
-7.99058e-07
-6.10685e-07
-4.67675e-07
-3.61969e-07
-2.86498e-07
-2.35101e-07
-2.02324e-07
-1.83384e-07
-1.74018e-07
-1.70491e-07
-1.69545e-07
-1.68468e-07
-1.65137e-07
-1.58101e-07
-1.46618e-07
-1.30662e-07
-1.10875e-07
-8.8461e-08
-6.50508e-08
-4.2528e-08
-2.28603e-08
-7.89755e-09
8.43933e-10
2.57052e-09
-4.27508e-09
3.68879e-05
3.68373e-05
3.67085e-05
3.65014e-05
3.62122e-05
3.58287e-05
3.53344e-05
3.47098e-05
3.39317e-05
3.29728e-05
3.18015e-05
3.03822e-05
2.8675e-05
2.66374e-05
2.42248e-05
2.13935e-05
1.8104e-05
1.43248e-05
1.00388e-05
5.24924e-06
-1.32763e-08
-5.68307e-06
-1.16537e-05
-1.77748e-05
-2.38541e-05
-2.96652e-05
-3.49631e-05
-3.95052e-05
-4.3078e-05
-4.55229e-05
-4.6757e-05
-4.67857e-05
-4.56997e-05
-4.36606e-05
-4.0876e-05
-3.75712e-05
-3.39644e-05
-3.02483e-05
-2.65797e-05
-2.30761e-05
-1.98184e-05
-1.68547e-05
-1.42071e-05
-1.18779e-05
-9.85543e-06
-8.11886e-06
-6.64225e-06
-5.39745e-06
-4.35618e-06
-3.49136e-06
-2.77797e-06
-2.19355e-06
-1.71833e-06
-1.33523e-06
-1.02959e-06
-7.88902e-07
-6.02447e-07
-4.60965e-07
-3.56421e-07
-2.81799e-07
-2.30969e-07
-1.98542e-07
-1.79781e-07
-1.70494e-07
-1.66997e-07
-1.66087e-07
-1.65092e-07
-1.6192e-07
-1.55137e-07
-1.44005e-07
-1.2849e-07
-1.09214e-07
-8.73517e-08
-6.44964e-08
-4.24893e-08
-2.32519e-08
-8.58748e-09
3.03966e-11
1.84336e-09
-4.59948e-09
3.69183e-05
3.68687e-05
3.67424e-05
3.65392e-05
3.62553e-05
3.58786e-05
3.53929e-05
3.47787e-05
3.40128e-05
3.30681e-05
3.19129e-05
3.05112e-05
2.8823e-05
2.68048e-05
2.44112e-05
2.1597e-05
1.83205e-05
1.4548e-05
1.02594e-05
5.45478e-06
1.62038e-07
-5.55545e-06
-1.15922e-05
-1.77969e-05
-2.39737e-05
-2.98897e-05
-3.52904e-05
-3.99225e-05
-4.35616e-05
-4.60404e-05
-4.72718e-05
-4.72622e-05
-4.61088e-05
-4.39831e-05
-4.11038e-05
-3.77066e-05
-3.40175e-05
-3.02335e-05
-2.65131e-05
-2.29735e-05
-1.96936e-05
-1.67191e-05
-1.40696e-05
-1.17449e-05
-9.73109e-06
-8.00568e-06
-6.54141e-06
-5.30918e-06
-4.28008e-06
-3.42661e-06
-2.72351e-06
-2.14819e-06
-1.68089e-06
-1.30455e-06
-1.00463e-06
-7.6872e-07
-5.86186e-07
-4.4785e-07
-3.45745e-07
-2.72925e-07
-2.2334e-07
-1.91697e-07
-1.7337e-07
-1.64278e-07
-1.60847e-07
-1.59971e-07
-1.59057e-07
-1.56076e-07
-1.49631e-07
-1.39003e-07
-1.24157e-07
-1.05689e-07
-8.47311e-08
-6.28163e-08
-4.17125e-08
-2.32587e-08
-9.17107e-09
-8.40775e-10
1.03629e-09
-4.93883e-09
3.6963e-05
3.69148e-05
3.67922e-05
3.65947e-05
3.63187e-05
3.59522e-05
3.54791e-05
3.48801e-05
3.41323e-05
3.32085e-05
3.2077e-05
3.07015e-05
2.90413e-05
2.70521e-05
2.46868e-05
2.18982e-05
1.86415e-05
1.48794e-05
1.05876e-05
5.76153e-06
4.24656e-07
-5.36305e-06
-1.14977e-05
-1.78267e-05
-2.41488e-05
-3.02215e-05
-3.57763e-05
-4.05436e-05
-4.42822e-05
-4.68119e-05
-4.80392e-05
-4.7972e-05
-4.6717e-05
-4.44611e-05
-4.144e-05
-3.79049e-05
-3.40932e-05
-3.02086e-05
-2.64118e-05
-2.28193e-05
-1.9507e-05
-1.65171e-05
-1.38652e-05
-1.15475e-05
-9.54676e-06
-7.83805e-06
-6.39216e-06
-5.17863e-06
-4.16758e-06
-3.33092e-06
-2.64305e-06
-2.08122e-06
-1.62564e-06
-1.25935e-06
-9.67939e-07
-7.39152e-07
-5.62488e-07
-4.28875e-07
-3.30441e-07
-2.60338e-07
-2.12634e-07
-1.82177e-07
-1.64498e-07
-1.55682e-07
-1.52312e-07
-1.51421e-07
-1.50537e-07
-1.47718e-07
-1.41636e-07
-1.31605e-07
-1.17594e-07
-1.00178e-07
-8.0435e-08
-5.98178e-08
-3.99941e-08
-2.26861e-08
-9.48566e-09
-1.66498e-09
1.67785e-10
-5.33091e-09
3.7021e-05
3.69747e-05
3.68568e-05
3.66668e-05
3.6401e-05
3.60477e-05
3.5591e-05
3.50118e-05
3.42875e-05
3.33909e-05
3.22903e-05
3.0949e-05
2.93257e-05
2.73746e-05
2.50468e-05
2.22921e-05
1.90621e-05
1.53147e-05
1.10198e-05
6.16686e-06
7.73426e-07
-5.10534e-06
-1.13679e-05
-1.78601e-05
-2.43739e-05
-3.0654e-05
-3.64136e-05
-4.13608e-05
-4.52324e-05
-4.78302e-05
-4.90517e-05
-4.89071e-05
-4.75164e-05
-4.50868e-05
-4.18774e-05
-3.81601e-05
-3.41871e-05
-3.01709e-05
-2.62747e-05
-2.26137e-05
-1.92601e-05
-1.62511e-05
-1.35968e-05
-1.12888e-05
-9.30568e-06
-7.61914e-06
-6.19749e-06
-5.0085e-06
-4.0211e-06
-3.20643e-06
-2.53845e-06
-1.9942e-06
-1.55389e-06
-1.20069e-06
-9.20375e-07
-7.00884e-07
-5.31885e-07
-4.0444e-07
-3.10798e-07
-2.44237e-07
-1.9898e-07
-1.70062e-07
-1.5322e-07
-1.44752e-07
-1.4144e-07
-1.40499e-07
-1.39602e-07
-1.36928e-07
-1.31232e-07
-1.21879e-07
-1.08851e-07
-9.27002e-08
-7.4442e-08
-5.54352e-08
-3.72237e-08
-2.13849e-08
-9.35612e-09
-2.26376e-09
-6.09141e-10
-5.66637e-09
3.7091e-05
3.70469e-05
3.69347e-05
3.67537e-05
3.65003e-05
3.61629e-05
3.5726e-05
3.51709e-05
3.4475e-05
3.36115e-05
3.25485e-05
3.12489e-05
2.96706e-05
2.77662e-05
2.54846e-05
2.27721e-05
1.95758e-05
1.58478e-05
1.1551e-05
6.66724e-06
1.20663e-06
-4.78185e-06
-1.11999e-05
-1.7892e-05
-2.4642e-05
-3.11789e-05
-3.7193e-05
-4.23646e-05
-4.64023e-05
-4.90853e-05
-5.02994e-05
-5.00577e-05
-4.84969e-05
-4.58506e-05
-4.24072e-05
-3.84646e-05
-3.42938e-05
-3.01169e-05
-2.61005e-05
-2.23575e-05
-1.89551e-05
-1.5924e-05
-1.32682e-05
-1.0973e-05
-9.01204e-06
-7.353e-06
-5.96119e-06
-4.80227e-06
-3.84375e-06
-3.05585e-06
-2.41201e-06
-1.88907e-06
-1.46724e-06
-1.12987e-06
-8.62975e-07
-6.54725e-07
-4.94998e-07
-3.75017e-07
-2.87173e-07
-2.24903e-07
-1.82621e-07
-1.55591e-07
-1.39805e-07
-1.31811e-07
-1.28632e-07
-1.27686e-07
-1.2682e-07
-1.24347e-07
-1.19117e-07
-1.10556e-07
-9.8666e-08
-8.39731e-08
-6.74271e-08
-5.02798e-08
-3.39354e-08
-1.98081e-08
-9.16195e-09
-2.96071e-09
-1.57983e-09
-6.18291e-09
3.71712e-05
3.71297e-05
3.7024e-05
3.68535e-05
3.66142e-05
3.62952e-05
3.58811e-05
3.53536e-05
3.46906e-05
3.38653e-05
3.28458e-05
3.15947e-05
3.00688e-05
2.82192e-05
2.5992e-05
2.33298e-05
2.01742e-05
1.64707e-05
1.21741e-05
7.25722e-06
1.72103e-06
-4.39313e-06
-1.09914e-05
-1.79169e-05
-2.49446e-05
-3.17853e-05
-3.8102e-05
-4.35416e-05
-4.77783e-05
-5.05634e-05
-5.17683e-05
-5.14095e-05
-4.96444e-05
-4.6739e-05
-4.30177e-05
-3.88093e-05
-3.44065e-05
-3.00431e-05
-2.58882e-05
-2.20519e-05
-1.85948e-05
-1.55403e-05
-1.28844e-05
-1.06054e-05
-8.67126e-06
-7.04484e-06
-5.68811e-06
-4.56432e-06
-3.63937e-06
-2.8825e-06
-2.26656e-06
-1.76818e-06
-1.36761e-06
-1.04842e-06
-7.96909e-07
-6.01553e-07
-4.52461e-07
-3.41039e-07
-2.59844e-07
-2.02499e-07
-1.63646e-07
-1.38819e-07
-1.24303e-07
-1.16936e-07
-1.14003e-07
-1.13148e-07
-1.124e-07
-1.10213e-07
-1.05541e-07
-9.78755e-08
-8.72381e-08
-7.41323e-08
-5.94386e-08
-4.42969e-08
-2.99641e-08
-1.76832e-08
-8.53936e-09
-3.33095e-09
-2.30992e-09
-6.54094e-09
3.72598e-05
3.72212e-05
3.71227e-05
3.69637e-05
3.67402e-05
3.64414e-05
3.60526e-05
3.55559e-05
3.49295e-05
3.41468e-05
3.31759e-05
3.19791e-05
3.05122e-05
2.87245e-05
2.65592e-05
2.39546e-05
2.08468e-05
1.71734e-05
1.28801e-05
7.92945e-06
2.31178e-06
-3.94082e-06
-1.07401e-05
-1.79287e-05
-2.5272e-05
-3.24601e-05
-3.91251e-05
-4.48745e-05
-4.93422e-05
-5.22459e-05
-5.34397e-05
-5.29441e-05
-5.09412e-05
-4.77361e-05
-4.36951e-05
-3.91834e-05
-3.45184e-05
-2.9946e-05
-2.56377e-05
-2.16992e-05
-1.81838e-05
-1.51055e-05
-1.24518e-05
-1.01928e-05
-8.2899e-06
-6.70088e-06
-5.38394e-06
-4.29974e-06
-3.41247e-06
-2.69027e-06
-2.10542e-06
-1.63432e-06
-1.2573e-06
-9.58214e-07
-7.23727e-07
-5.42641e-07
-4.05328e-07
-3.03398e-07
-2.29591e-07
-1.77737e-07
-1.42741e-07
-1.20443e-07
-1.07453e-07
-1.00924e-07
-9.84212e-08
-9.78189e-08
-9.73307e-08
-9.55528e-08
-9.15425e-08
-8.48561e-08
-7.55401e-08
-6.40777e-08
-5.12817e-08
-3.81811e-08
-2.58863e-08
-1.54711e-08
-7.84613e-09
-3.65245e-09
-3.02663e-09
-6.9434e-09
3.73548e-05
3.73192e-05
3.72285e-05
3.70818e-05
3.68752e-05
3.65982e-05
3.62366e-05
3.57731e-05
3.51861e-05
3.44494e-05
3.35313e-05
3.23936e-05
3.09911e-05
2.92712e-05
2.71744e-05
2.46343e-05
2.15807e-05
1.79432e-05
1.36574e-05
8.67409e-06
2.97173e-06
-3.42845e-06
-1.04453e-05
-1.79217e-05
-2.56132e-05
-3.3188e-05
-4.02431e-05
-4.63416e-05
-5.10704e-05
-5.41084e-05
-5.52892e-05
-5.46377e-05
-5.23654e-05
-4.88222e-05
-4.44235e-05
-3.95754e-05
-3.46223e-05
-2.98228e-05
-2.53498e-05
-2.13034e-05
-1.77278e-05
-1.4627e-05
-1.19782e-05
-9.74312e-06
-7.87572e-06
-6.32836e-06
-5.05527e-06
-4.0144e-06
-3.16816e-06
-2.48356e-06
-1.93228e-06
-1.49053e-06
-1.13879e-06
-8.6124e-07
-6.44972e-07
-4.79158e-07
-3.54458e-07
-2.62695e-07
-1.96804e-07
-1.50848e-07
-1.2002e-07
-1.00499e-07
-8.92471e-08
-8.37491e-08
-8.18527e-08
-8.16624e-08
-8.15698e-08
-8.0307e-08
-7.70318e-08
-7.13676e-08
-6.33891e-08
-5.35654e-08
-4.26482e-08
-3.15618e-08
-2.12766e-08
-1.27047e-08
-6.59385e-09
-3.44301e-09
-3.2965e-09
-7.0834e-09
3.74538e-05
3.74214e-05
3.73389e-05
3.72051e-05
3.70161e-05
3.67619e-05
3.64289e-05
3.6e-05
3.54545e-05
3.47663e-05
3.39039e-05
3.28287e-05
3.14947e-05
2.98475e-05
2.78244e-05
2.53545e-05
2.23612e-05
1.87653e-05
1.44917e-05
9.47853e-06
3.69103e-06
-2.86188e-06
-1.01077e-05
-1.78907e-05
-2.59571e-05
-3.39515e-05
-4.14331e-05
-4.79156e-05
-5.29331e-05
-5.61199e-05
-5.72859e-05
-5.64611e-05
-5.38901e-05
-4.99748e-05
-4.51853e-05
-3.99733e-05
-3.47119e-05
-2.96722e-05
-2.50272e-05
-2.08702e-05
-1.72348e-05
-1.41137e-05
-1.14733e-05
-9.26581e-06
-7.43773e-06
-5.93563e-06
-4.70965e-06
-3.715e-06
-2.91229e-06
-2.26743e-06
-1.75149e-06
-1.34052e-06
-1.01522e-06
-7.60175e-07
-5.62935e-07
-4.13083e-07
-3.01573e-07
-2.20449e-07
-1.62847e-07
-1.23081e-07
-9.66608e-08
-8.01277e-08
-7.08138e-08
-6.65395e-08
-6.54309e-08
-6.58089e-08
-6.62292e-08
-6.55502e-08
-6.30264e-08
-5.83515e-08
-5.16368e-08
-4.33482e-08
-3.41884e-08
-2.49883e-08
-1.65895e-08
-9.75444e-09
-5.08184e-09
-2.94554e-09
-3.31742e-09
-7.11277e-09
3.75546e-05
3.75255e-05
3.74512e-05
3.73305e-05
3.71595e-05
3.69286e-05
3.66247e-05
3.62314e-05
3.57283e-05
3.509e-05
3.42849e-05
3.32743e-05
3.20114e-05
3.04401e-05
2.84945e-05
2.60993e-05
2.31712e-05
1.96222e-05
1.53658e-05
1.0327e-05
4.45672e-06
-2.24993e-06
-9.73052e-06
-1.78321e-05
-2.62921e-05
-3.47313e-05
-4.26686e-05
-4.95642e-05
-5.48938e-05
-5.8242e-05
-5.93916e-05
-5.83783e-05
-5.54839e-05
-5.11678e-05
-4.59614e-05
-4.0365e-05
-3.47818e-05
-2.94944e-05
-2.46747e-05
-2.04074e-05
-1.67145e-05
-1.35763e-05
-1.09479e-05
-8.77159e-06
-6.98595e-06
-5.53177e-06
-4.35513e-06
-3.40854e-06
-2.65085e-06
-2.04689e-06
-1.56717e-06
-1.18765e-06
-8.89261e-07
-6.57075e-07
-4.7916e-07
-3.45521e-07
-2.47409e-07
-1.7708e-07
-1.27882e-07
-9.43951e-08
-7.24687e-08
-5.90294e-08
-5.17892e-08
-4.89001e-08
-4.87497e-08
-4.98521e-08
-5.09057e-08
-5.08805e-08
-4.9123e-08
-4.54013e-08
-3.98747e-08
-3.30207e-08
-2.55087e-08
-1.80911e-08
-1.14936e-08
-6.34185e-09
-3.0983e-09
-2.02542e-09
-3.03595e-09
-7.03885e-09
3.76547e-05
3.76288e-05
3.75628e-05
3.74552e-05
3.73021e-05
3.70944e-05
3.68195e-05
3.64616e-05
3.6001e-05
3.54126e-05
3.46652e-05
3.37198e-05
3.25288e-05
3.10347e-05
2.91687e-05
2.68509e-05
2.39916e-05
2.04938e-05
1.62598e-05
1.12008e-05
5.25244e-06
-1.60471e-06
-9.31979e-06
-1.77441e-05
-2.66074e-05
-3.55068e-05
-4.39195e-05
-5.12492e-05
-5.69087e-05
-6.0428e-05
-6.15602e-05
-6.03467e-05
-5.711e-05
-5.23728e-05
-4.67318e-05
-4.07392e-05
-3.48282e-05
-2.92919e-05
-2.42994e-05
-1.99253e-05
-1.6179e-05
-1.30277e-05
-1.04148e-05
-8.27252e-06
-6.53152e-06
-5.12686e-06
-4.00068e-06
-3.10289e-06
-2.39069e-06
-1.82788e-06
-1.38444e-06
-1.03629e-06
-7.64689e-07
-5.55229e-07
-3.96526e-07
-2.79013e-07
-1.94222e-07
-1.3461e-07
-9.37301e-08
-6.64438e-08
-4.89627e-08
-3.8616e-08
-3.35003e-08
-3.20863e-08
-3.29978e-08
-3.49119e-08
-3.66416e-08
-3.72508e-08
-3.61723e-08
-3.32544e-08
-2.8719e-08
-2.30748e-08
-1.69777e-08
-1.11204e-08
-6.12942e-09
-2.50708e-09
-5.92294e-10
-5.4839e-10
-2.24582e-09
-6.62724e-09
3.77519e-05
3.77291e-05
3.7671e-05
3.75761e-05
3.74404e-05
3.72551e-05
3.70085e-05
3.66852e-05
3.6266e-05
3.57264e-05
3.50353e-05
3.4154e-05
3.30342e-05
3.16166e-05
2.98301e-05
2.75906e-05
2.48018e-05
2.13584e-05
1.71512e-05
1.20778e-05
6.05843e-06
-9.4191e-07
-8.88489e-06
-1.76275e-05
-2.68932e-05
-3.62564e-05
-4.51526e-05
-5.2927e-05
-5.89265e-05
-6.26232e-05
-6.37378e-05
-6.23171e-05
-5.87275e-05
-5.35587e-05
-4.74764e-05
-4.10859e-05
-3.48498e-05
-2.907e-05
-2.3911e-05
-1.94364e-05
-1.5642e-05
-1.24821e-05
-9.88776e-06
-7.78138e-06
-6.08599e-06
-4.73107e-06
-3.65506e-06
-2.80549e-06
-2.13801e-06
-1.61546e-06
-1.20736e-06
-8.89637e-07
-6.43933e-07
-4.56425e-07
-3.16293e-07
-2.14382e-07
-1.4248e-07
-9.32133e-08
-6.03348e-08
-3.89957e-08
-2.57871e-08
-1.84542e-08
-1.54771e-08
-1.56269e-08
-1.77315e-08
-2.05935e-08
-2.31075e-08
-2.44076e-08
-2.40033e-08
-2.18268e-08
-1.81755e-08
-1.36079e-08
-8.78757e-09
-4.3669e-09
-8.89437e-10
1.2524e-09
1.83392e-09
7.86627e-10
-1.70617e-09
-6.55638e-09
3.78437e-05
3.78239e-05
3.77733e-05
3.76903e-05
3.7571e-05
3.74071e-05
3.71871e-05
3.68965e-05
3.65166e-05
3.60234e-05
3.53861e-05
3.45661e-05
3.35144e-05
3.21708e-05
3.04615e-05
2.82986e-05
2.55801e-05
2.21924e-05
1.80155e-05
1.29337e-05
6.85182e-06
-2.80599e-07
-8.4386e-06
-1.7486e-05
-2.71417e-05
-3.69589e-05
-4.63326e-05
-5.45497e-05
-6.089e-05
-6.47655e-05
-6.58628e-05
-6.42343e-05
-6.02914e-05
-5.4693e-05
-4.81755e-05
-4.13968e-05
-3.48475e-05
-2.88364e-05
-2.35219e-05
-1.89555e-05
-1.51197e-05
-1.19552e-05
-9.38177e-06
-7.31208e-06
-5.66188e-06
-4.35551e-06
-3.32804e-06
-2.52485e-06
-1.90018e-06
-1.41601e-06
-1.04144e-06
-7.52452e-07
-5.31137e-07
-3.64284e-07
-2.41638e-07
-1.5443e-07
-9.46587e-08
-5.50857e-08
-2.96432e-08
-1.37729e-08
-4.45635e-09
1.3731e-10
1.14949e-09
-4.71213e-10
-3.7246e-09
-7.50153e-09
-1.07447e-08
-1.26347e-08
-1.27465e-08
-1.10978e-08
-8.07333e-09
-4.29999e-09
-4.69996e-10
2.78395e-09
4.98299e-09
5.83026e-09
5.20439e-09
3.12217e-09
-2.02222e-10
-5.73237e-09
3.79281e-05
3.7911e-05
3.78673e-05
3.77953e-05
3.7691e-05
3.75465e-05
3.7351e-05
3.70904e-05
3.67467e-05
3.62961e-05
3.57086e-05
3.49452e-05
3.39569e-05
3.26823e-05
3.10455e-05
2.89553e-05
2.63043e-05
2.29714e-05
1.88267e-05
1.37419e-05
7.60733e-06
3.57211e-07
-7.99688e-06
-1.73264e-05
-2.73474e-05
-3.75941e-05
-4.74234e-05
-5.60663e-05
-6.27366e-05
-6.67865e-05
-6.7868e-05
-6.60385e-05
-6.17541e-05
-5.57429e-05
-4.88106e-05
-4.1666e-05
-3.48251e-05
-2.86016e-05
-2.31465e-05
-1.84991e-05
-1.46286e-05
-1.14633e-05
-8.9119e-06
-6.87809e-06
-5.27096e-06
-4.01025e-06
-3.02808e-06
-2.26794e-06
-1.68287e-06
-1.23404e-06
-8.902e-07
-6.27437e-07
-4.28315e-07
-2.80253e-07
-1.73549e-07
-9.97818e-08
-5.11081e-08
-2.03814e-08
-1.68495e-09
9.26075e-09
1.50869e-08
1.72047e-08
1.63898e-08
1.33341e-08
8.89845e-09
4.13962e-09
1.00103e-10
-2.4214e-09
-3.05045e-09
-1.88542e-09
5.95932e-10
3.6865e-09
6.64914e-09
8.85333e-09
9.86864e-09
9.48038e-09
7.66225e-09
4.51712e-09
3.21556e-10
-5.81043e-09
3.80031e-05
3.79884e-05
3.79507e-05
3.78883e-05
3.77972e-05
3.767e-05
3.74961e-05
3.72621e-05
3.69503e-05
3.65376e-05
3.59942e-05
3.52813e-05
3.43497e-05
3.3137e-05
3.15657e-05
2.95415e-05
2.69526e-05
2.36712e-05
1.95587e-05
1.44754e-05
8.29834e-06
9.47563e-07
-7.57817e-06
-1.71584e-05
-2.75073e-05
-3.81434e-05
-4.83894e-05
-5.74247e-05
-6.44013e-05
-6.86145e-05
-6.96826e-05
-6.76673e-05
-6.30672e-05
-5.66761e-05
-4.93652e-05
-4.189e-05
-3.47887e-05
-2.83779e-05
-2.28006e-05
-1.80846e-05
-1.41866e-05
-1.10234e-05
-8.49374e-06
-6.49344e-06
-4.92565e-06
-3.70615e-06
-2.76458e-06
-2.04288e-06
-1.49304e-06
-1.07552e-06
-7.58781e-07
-5.19017e-07
-3.39281e-07
-2.07612e-07
-1.14824e-07
-5.2799e-08
-1.37997e-08
9.27296e-09
2.2218e-08
2.90591e-08
3.20582e-08
3.22235e-08
2.99843e-08
2.57992e-08
2.04162e-08
1.48661e-08
1.02017e-08
7.22151e-09
6.26383e-09
7.15683e-09
9.32998e-09
1.19897e-08
1.43428e-08
1.57468e-08
1.5805e-08
1.4371e-08
1.15023e-08
7.37539e-09
2.29137e-09
-4.6929e-09
3.80669e-05
3.80542e-05
3.80216e-05
3.79673e-05
3.78874e-05
3.77745e-05
3.76189e-05
3.74072e-05
3.71223e-05
3.67416e-05
3.62355e-05
3.55654e-05
3.46819e-05
3.35219e-05
3.20067e-05
3.00395e-05
2.75047e-05
2.42691e-05
2.01865e-05
1.51077e-05
8.89837e-06
1.46596e-06
-7.20223e-06
-1.69933e-05
-2.76212e-05
-3.85914e-05
-4.91977e-05
-5.85747e-05
-6.58201e-05
-7.01779e-05
-7.1236e-05
-6.9059e-05
-6.41837e-05
-5.74627e-05
-4.98253e-05
-4.20675e-05
-3.4746e-05
-2.81786e-05
-2.25007e-05
-1.77293e-05
-1.38104e-05
-1.06509e-05
-8.1412e-06
-6.17022e-06
-4.63625e-06
-3.45184e-06
-2.54466e-06
-1.85544e-06
-1.3353e-06
-9.441e-07
-6.50032e-07
-4.29429e-07
-2.65795e-07
-1.47738e-07
-6.65401e-08
-1.43259e-08
1.65778e-08
3.32646e-08
4.14535e-08
4.49511e-08
4.56887e-08
4.43093e-08
4.09296e-08
3.58035e-08
2.9589e-08
2.33112e-08
1.80506e-08
1.46218e-08
1.33423e-08
1.39794e-08
1.58784e-08
1.81627e-08
1.99805e-08
2.06704e-08
1.98582e-08
1.74549e-08
1.35929e-08
8.52338e-09
2.61563e-09
-4.95735e-09
3.8118e-05
3.81069e-05
3.80783e-05
3.80303e-05
3.79591e-05
3.78577e-05
3.77162e-05
3.75221e-05
3.72584e-05
3.69028e-05
3.6426e-05
3.57897e-05
3.49441e-05
3.3826e-05
3.23554e-05
3.04337e-05
2.79426e-05
2.47446e-05
2.06876e-05
1.56148e-05
9.38284e-06
1.88914e-06
-6.88848e-06
-1.68437e-05
-2.76908e-05
-3.89256e-05
-4.98195e-05
-5.94711e-05
-6.69341e-05
-7.14103e-05
-7.24621e-05
-7.01564e-05
-6.50609e-05
-5.80764e-05
-5.01797e-05
-4.21993e-05
-3.47058e-05
-2.80171e-05
-2.22623e-05
-1.74494e-05
-1.35157e-05
-1.03606e-05
-7.8674e-06
-5.92001e-06
-4.41284e-06
-3.25601e-06
-2.37576e-06
-1.7119e-06
-1.2149e-06
-8.44163e-07
-5.67631e-07
-3.61751e-07
-2.10413e-07
-1.0271e-07
-3.03104e-08
1.44675e-08
3.92693e-08
5.12094e-08
5.59608e-08
5.71597e-08
5.64625e-08
5.42026e-08
5.02298e-08
4.46238e-08
3.797e-08
3.12953e-08
2.57131e-08
2.20618e-08
2.06489e-08
2.11954e-08
2.29768e-08
2.50445e-08
2.64941e-08
2.66436e-08
2.51352e-08
2.19265e-08
1.72127e-08
1.13038e-08
4.58753e-09
-3.80859e-09
3.81554e-05
3.81454e-05
3.81196e-05
3.8076e-05
3.80109e-05
3.79173e-05
3.77859e-05
3.7604e-05
3.7355e-05
3.7017e-05
3.65607e-05
3.59479e-05
3.51291e-05
3.40403e-05
3.26011e-05
3.07118e-05
2.82519e-05
2.5081e-05
2.10433e-05
1.59765e-05
9.73098e-06
2.19709e-06
-6.65414e-06
-1.67212e-05
-2.77192e-05
-3.91375e-05
-5.0232e-05
-6.00767e-05
-6.76937e-05
-7.22553e-05
-7.3305e-05
-7.0911e-05
-6.56629e-05
-5.84958e-05
-5.042e-05
-4.22867e-05
-3.46758e-05
-2.79051e-05
-2.20986e-05
-1.72582e-05
-1.33153e-05
-1.01637e-05
-7.68227e-06
-5.75129e-06
-4.26259e-06
-3.12466e-06
-2.26281e-06
-1.61628e-06
-1.13512e-06
-7.78364e-07
-5.13776e-07
-3.17868e-07
-1.74811e-07
-7.40533e-08
-7.54933e-09
3.22481e-08
5.29789e-08
6.17934e-08
6.43486e-08
6.41671e-08
6.27054e-08
6.00642e-08
5.58887e-08
5.01228e-08
4.32952e-08
3.64353e-08
3.06856e-08
2.69086e-08
2.54106e-08
2.58829e-08
2.75512e-08
2.94145e-08
3.05285e-08
3.01969e-08
2.80757e-08
2.41613e-08
1.8703e-08
1.20678e-08
4.70391e-09
-4.14196e-09
3.81782e-05
3.81688e-05
3.81445e-05
3.81034e-05
3.80415e-05
3.79522e-05
3.78261e-05
3.76508e-05
3.74098e-05
3.70812e-05
3.6636e-05
3.6036e-05
3.52314e-05
3.41586e-05
3.27365e-05
3.08647e-05
2.8422e-05
2.52665e-05
2.12402e-05
1.61782e-05
9.92754e-06
2.37489e-06
-6.51231e-06
-1.66353e-05
-2.77096e-05
-3.92217e-05
-5.04198e-05
-6.03651e-05
-6.80638e-05
-7.26721e-05
-7.37239e-05
-7.12876e-05
-6.5964e-05
-5.8706e-05
-5.05409e-05
-4.23314e-05
-3.46625e-05
-2.78513e-05
-2.20194e-05
-1.71656e-05
-1.32182e-05
-1.00685e-05
-7.59315e-06
-5.67043e-06
-4.19093e-06
-3.06237e-06
-2.20962e-06
-1.5717e-06
-1.09842e-06
-7.48607e-07
-4.89904e-07
-2.98829e-07
-1.59694e-07
-6.21443e-08
1.69872e-09
3.93057e-08
5.83201e-08
6.59262e-08
6.77869e-08
6.73688e-08
6.60146e-08
6.36825e-08
5.9886e-08
5.44763e-08
4.79379e-08
4.12959e-08
3.57087e-08
3.20554e-08
3.06455e-08
3.11571e-08
3.27896e-08
3.45141e-08
3.53666e-08
3.4647e-08
3.20269e-08
2.75353e-08
2.14637e-08
1.42177e-08
6.25638e-09
-3.20109e-09
3.81861e-05
3.81767e-05
3.81526e-05
3.81117e-05
3.80503e-05
3.79615e-05
3.78361e-05
3.76616e-05
3.74215e-05
3.7094e-05
3.665e-05
3.60514e-05
3.52486e-05
3.41775e-05
3.27574e-05
3.08879e-05
2.84476e-05
2.52948e-05
2.12711e-05
1.62121e-05
9.96421e-06
2.41431e-06
-6.47042e-06
-1.65914e-05
-2.76645e-05
-3.91764e-05
-5.03756e-05
-6.03234e-05
-6.80259e-05
-7.26394e-05
-7.36973e-05
-7.12676e-05
-6.59507e-05
-5.86989e-05
-5.05393e-05
-4.23344e-05
-3.46688e-05
-2.786e-05
-2.20294e-05
-1.71763e-05
-1.32291e-05
-1.00793e-05
-7.60365e-06
-5.68052e-06
-4.20054e-06
-3.07146e-06
-2.21824e-06
-1.57993e-06
-1.10636e-06
-7.56317e-07
-4.97368e-07
-3.05976e-07
-1.66435e-07
-6.84105e-08
-4.05248e-09
3.40928e-08
5.36761e-08
6.19059e-08
6.44679e-08
6.48334e-08
6.4325e-08
6.28591e-08
5.99001e-08
5.52536e-08
4.93736e-08
4.32704e-08
3.81006e-08
3.4748e-08
3.35271e-08
3.41188e-08
3.57222e-08
3.73089e-08
3.79186e-08
3.68625e-08
3.38319e-08
2.88838e-08
2.23425e-08
1.46474e-08
6.29532e-09
-3.41415e-09
3.81788e-05
3.8169e-05
3.81438e-05
3.81012e-05
3.80373e-05
3.79452e-05
3.78157e-05
3.76362e-05
3.739e-05
3.70553e-05
3.66027e-05
3.59943e-05
3.51802e-05
3.40969e-05
3.26638e-05
3.07811e-05
2.83284e-05
2.51653e-05
2.11357e-05
1.60775e-05
9.84038e-06
2.31464e-06
-6.52929e-06
-1.65906e-05
-2.75849e-05
-3.90027e-05
-5.01004e-05
-5.99525e-05
-6.75812e-05
-7.21581e-05
-7.32259e-05
-7.08514e-05
-6.56229e-05
-5.84744e-05
-5.04149e-05
-4.22951e-05
-3.46944e-05
-2.79306e-05
-2.21282e-05
-1.72898e-05
-1.33474e-05
-1.01955e-05
-7.71326e-06
-5.78107e-06
-4.2909e-06
-3.1514e-06
-2.28806e-06
-1.64031e-06
-1.15821e-06
-8.00664e-07
-5.3524e-07
-3.38281e-07
-1.93907e-07
-9.16172e-08
-2.34559e-08
1.8076e-08
4.06379e-08
5.14488e-08
5.62301e-08
5.85154e-08
5.96994e-08
5.97584e-08
5.81899e-08
5.48025e-08
5.0032e-08
4.48617e-08
4.04263e-08
3.76002e-08
3.67035e-08
3.74361e-08
3.90237e-08
4.04686e-08
4.08406e-08
3.94796e-08
3.61031e-08
3.07923e-08
2.3894e-08
1.58641e-08
7.19955e-09
-2.81116e-09
3.81569e-05
3.81461e-05
3.81185e-05
3.8072e-05
3.80028e-05
3.7904e-05
3.77658e-05
3.75755e-05
3.73165e-05
3.69663e-05
3.64957e-05
3.58664e-05
3.50289e-05
3.39198e-05
3.24591e-05
3.05484e-05
2.80691e-05
2.48838e-05
2.08402e-05
1.57813e-05
9.56315e-06
2.0827e-06
-6.68311e-06
-1.6629e-05
-2.74704e-05
-3.87045e-05
-4.96038e-05
-5.92676e-05
-6.67496e-05
-7.12508e-05
-7.2332e-05
-7.0058e-05
-6.49944e-05
-5.804e-05
-5.01701e-05
-4.22117e-05
-3.4735e-05
-2.80578e-05
-2.23099e-05
-1.75005e-05
-1.3568e-05
-1.04126e-05
-7.9182e-06
-5.96899e-06
-4.45956e-06
-3.30028e-06
-2.41771e-06
-1.75194e-06
-1.25348e-06
-8.8153e-07
-6.03709e-07
-3.96197e-07
-2.42795e-07
-1.32669e-07
-5.76209e-08
-1.00448e-08
1.77356e-08
3.29419e-08
4.13454e-08
4.65966e-08
5.02491e-08
5.2434e-08
5.27597e-08
5.10832e-08
4.78344e-08
4.39586e-08
4.05496e-08
3.84592e-08
3.80137e-08
3.89475e-08
4.05391e-08
4.18511e-08
4.20095e-08
4.03999e-08
3.67731e-08
3.12317e-08
2.41359e-08
1.59499e-08
7.17982e-09
-2.85878e-09
3.81209e-05
3.81087e-05
3.80775e-05
3.80253e-05
3.79481e-05
3.78389e-05
3.76877e-05
3.74815e-05
3.7203e-05
3.68298e-05
3.63322e-05
3.5672e-05
3.47995e-05
3.36519e-05
3.21504e-05
3.01982e-05
2.76796e-05
2.44615e-05
2.03972e-05
1.53373e-05
9.14666e-06
1.73212e-06
-6.92023e-06
-1.66989e-05
-2.73194e-05
-3.8289e-05
-4.89029e-05
-5.82966e-05
-6.55679e-05
-6.99595e-05
-7.10573e-05
-6.89232e-05
-6.4091e-05
-5.74108e-05
-4.98097e-05
-4.2082e-05
-3.47835e-05
-2.8232e-05
-2.2564e-05
-1.77979e-05
-1.38809e-05
-1.07214e-05
-8.21029e-06
-6.23707e-06
-4.70021e-06
-3.51261e-06
-2.60238e-06
-1.91059e-06
-1.38846e-06
-9.95583e-07
-6.99733e-07
-4.76886e-07
-3.10415e-07
-1.89008e-07
-1.04111e-07
-4.79458e-08
-1.28013e-08
8.54853e-09
2.19431e-08
3.11988e-08
3.81025e-08
4.30213e-08
4.57421e-08
4.62104e-08
4.48627e-08
4.25991e-08
4.04581e-08
3.92601e-08
3.93404e-08
4.04841e-08
4.2047e-08
4.31803e-08
4.30901e-08
4.12249e-08
3.73751e-08
3.16629e-08
2.44525e-08
1.62034e-08
7.40978e-09
-2.61081e-09
3.8072e-05
3.80579e-05
3.8022e-05
3.79622e-05
3.78747e-05
3.7752e-05
3.75838e-05
3.73567e-05
3.7053e-05
3.66498e-05
3.61173e-05
3.54168e-05
3.44992e-05
3.3302e-05
3.17479e-05
2.97426e-05
2.71741e-05
2.39144e-05
1.98247e-05
1.47647e-05
8.61075e-06
1.28185e-06
-7.22464e-06
-1.67899e-05
-2.71303e-05
-3.77662e-05
-4.8022e-05
-5.70781e-05
-6.40868e-05
-6.83416e-05
-6.94585e-05
-6.74958e-05
-6.29487e-05
-5.66078e-05
-4.93418e-05
-4.19039e-05
-3.48315e-05
-2.8441e-05
-2.28768e-05
-1.8168e-05
-1.42731e-05
-1.11103e-05
-8.57946e-06
-6.57679e-06
-5.00578e-06
-3.78265e-06
-2.83754e-06
-2.11284e-06
-1.56064e-06
-1.14113e-06
-8.22261e-07
-5.79815e-07
-3.96658e-07
-2.60898e-07
-1.63526e-07
-9.65293e-08
-5.21312e-08
-2.30851e-08
-3.46076e-09
1.07654e-08
2.16714e-08
2.99232e-08
3.55382e-08
3.85841e-08
3.9516e-08
3.91862e-08
3.85707e-08
3.8454e-08
3.91852e-08
4.06139e-08
4.21945e-08
4.31887e-08
4.29027e-08
4.08602e-08
3.6896e-08
3.11488e-08
2.39796e-08
1.58345e-08
7.19421e-09
-2.63008e-09
3.80114e-05
3.79951e-05
3.79534e-05
3.78846e-05
3.77845e-05
3.76456e-05
3.74569e-05
3.72046e-05
3.68706e-05
3.64315e-05
3.5857e-05
3.51085e-05
3.41369e-05
3.28809e-05
3.12646e-05
2.91967e-05
2.65698e-05
2.32625e-05
1.91445e-05
1.4087e-05
7.97924e-06
7.5431e-07
-7.57783e-06
-1.68907e-05
-2.69023e-05
-3.71494e-05
-4.69907e-05
-5.56583e-05
-6.2366e-05
-6.64642e-05
-6.76021e-05
-6.58334e-05
-6.16104e-05
-5.56574e-05
-4.87774e-05
-4.16766e-05
-3.487e-05
-2.86712e-05
-2.32322e-05
-1.85942e-05
-1.47283e-05
-1.15643e-05
-9.01211e-06
-6.97609e-06
-5.3657e-06
-4.10115e-06
-3.11515e-06
-2.3517e-06
-1.76398e-06
-1.31286e-06
-9.66582e-07
-7.00728e-07
-4.97635e-07
-3.44766e-07
-2.32586e-07
-1.52786e-07
-9.74815e-08
-5.93765e-08
-3.24244e-08
-1.2362e-08
3.21968e-09
1.53279e-08
2.4249e-08
3.01998e-08
3.36692e-08
3.54674e-08
3.65094e-08
3.75471e-08
3.89513e-08
4.06493e-08
4.22108e-08
4.30252e-08
4.25126e-08
4.0281e-08
3.62127e-08
3.04605e-08
2.33756e-08
1.5383e-08
6.9413e-09
-2.63083e-09
3.79409e-05
3.7922e-05
3.78738e-05
3.77945e-05
3.76802e-05
3.75226e-05
3.73105e-05
3.70295e-05
3.66609e-05
3.61809e-05
3.55587e-05
3.47558e-05
3.37234e-05
3.24012e-05
3.07154e-05
2.8578e-05
2.5887e-05
2.25282e-05
1.83814e-05
1.33301e-05
7.27807e-06
1.73432e-07
-7.96064e-06
-1.69901e-05
-2.66363e-05
-3.64549e-05
-4.58427e-05
-5.40879e-05
-6.047e-05
-6.43992e-05
-6.55591e-05
-6.39981e-05
-6.01233e-05
-5.45899e-05
-4.81308e-05
-4.14015e-05
-3.48913e-05
-2.8909e-05
-2.36139e-05
-1.90593e-05
-1.52297e-05
-1.20677e-05
-9.49427e-06
-7.42285e-06
-5.76966e-06
-4.45956e-06
-3.42826e-06
-2.62167e-06
-1.99423e-06
-1.50764e-06
-1.13046e-06
-8.38139e-07
-6.12478e-07
-4.40273e-07
-3.11416e-07
-2.17241e-07
-1.49706e-07
-1.01429e-07
-6.62215e-08
-3.95596e-08
-1.86833e-08
-2.22167e-09
1.04031e-08
1.95778e-08
2.58418e-08
2.99757e-08
3.28423e-08
3.51689e-08
3.73561e-08
3.9418e-08
4.10488e-08
4.17742e-08
4.11343e-08
3.88243e-08
3.47737e-08
2.91463e-08
2.2279e-08
1.45705e-08
6.4558e-09
-2.75651e-09
3.78623e-05
3.78406e-05
3.77851e-05
3.76944e-05
3.75643e-05
3.73863e-05
3.71486e-05
3.68361e-05
3.64296e-05
3.59049e-05
3.52308e-05
3.43688e-05
3.32705e-05
3.18769e-05
3.01165e-05
2.79053e-05
2.51469e-05
2.17354e-05
1.75611e-05
1.25208e-05
6.53355e-06
-4.37133e-07
-8.35489e-06
-1.7079e-05
-2.63355e-05
-3.57011e-05
-4.46135e-05
-5.24189e-05
-5.84639e-05
-6.22185e-05
-6.34004e-05
-6.20523e-05
-5.85362e-05
-5.34375e-05
-4.74187e-05
-4.10822e-05
-3.48894e-05
-2.91422e-05
-2.40058e-05
-1.95456e-05
-1.57595e-05
-1.26035e-05
-1.00102e-05
-7.90291e-06
-6.20508e-06
-4.84681e-06
-3.76719e-06
-2.91433e-06
-2.24409e-06
-1.71908e-06
-1.30829e-06
-9.87048e-07
-7.36697e-07
-5.43359e-07
-3.96326e-07
-2.86529e-07
-2.05717e-07
-1.46381e-07
-1.02166e-07
-6.82819e-08
-4.16131e-08
-2.04195e-08
-3.81934e-09
8.76175e-09
1.79341e-08
2.44684e-08
2.91929e-08
3.2823e-08
3.57985e-08
3.82261e-08
3.99282e-08
4.05685e-08
3.98075e-08
3.74274e-08
3.34029e-08
2.79069e-08
2.12598e-08
1.3832e-08
6.03185e-09
-2.8282e-09
3.77777e-05
3.7753e-05
3.76898e-05
3.75869e-05
3.744e-05
3.72403e-05
3.69753e-05
3.66294e-05
3.61829e-05
3.56109e-05
3.48821e-05
3.39579e-05
3.27907e-05
3.13227e-05
2.94852e-05
2.71982e-05
2.43717e-05
2.09082e-05
1.67093e-05
1.16854e-05
5.77085e-06
-1.05544e-06
-8.74464e-06
-1.71504e-05
-2.60051e-05
-3.49083e-05
-4.33391e-05
-5.07021e-05
-5.64098e-05
-5.99903e-05
-6.11933e-05
-6.0056e-05
-5.68967e-05
-5.22335e-05
-4.66599e-05
-4.07252e-05
-3.48612e-05
-2.93609e-05
-2.43941e-05
-2.0037e-05
-1.63011e-05
-1.31556e-05
-1.05451e-05
-8.40284e-06
-6.66023e-06
-5.25286e-06
-4.12353e-06
-3.22277e-06
-2.508e-06
-1.94284e-06
-1.49674e-06
-1.14504e-06
-8.68628e-07
-6.53005e-07
-4.86847e-07
-3.60647e-07
-2.65895e-07
-1.9492e-07
-1.41186e-07
-9.96344e-08
-6.68061e-08
-4.05984e-08
-1.98234e-08
-3.70483e-09
8.45989e-09
1.74553e-08
2.40948e-08
2.90957e-08
3.29433e-08
3.58374e-08
3.77248e-08
3.84008e-08
3.76408e-08
3.53082e-08
3.14199e-08
2.61556e-08
1.98189e-08
1.27535e-08
5.34695e-09
-3.08256e-09
3.76893e-05
3.76615e-05
3.75904e-05
3.74748e-05
3.73105e-05
3.70883e-05
3.67952e-05
3.64149e-05
3.59271e-05
3.53066e-05
3.45218e-05
3.35341e-05