/*--------------------------------*- C++ -*----------------------------------*\
| =========                 |                                                 |
| \\      /  F ield         | OpenFOAM: The Open Source CFD Toolbox           |
|  \\    /   O peration     | Version:  2512                                  |
|   \\  /    A nd           | Website:  www.openfoam.com                      |
|    \\/     M anipulation  |                                                 |
\*---------------------------------------------------------------------------*/
FoamFile
{
    version     2.0;
    format      ascii;
    arch        "LSB;label=32;scalar=64";
    class       volScalarField;
    location    "129";
    object      p;
}
// * * * * * * * * * * * * * * * * * * * * * * * * * * * * * * * * * * * * * //

dimensions      [0 2 -2 0 0 0 0];

internalField   nonuniform List<scalar> 
240106
(
0.000124612
0.000124399
0.000123859
0.000122991
0.000121784
0.000120188
0.000118134
0.000115542
0.000112313
0.000108331
0.000103464
9.7558e-05
9.04463e-05
8.19489e-05
7.18809e-05
6.00617e-05
4.63304e-05
3.0564e-05
1.27017e-05
-7.22743e-06
-2.90741e-05
-5.254e-05
-7.7155e-05
-0.000102267
-0.00012705
-0.000150544
-0.000171717
-0.000189556
-0.000203182
-0.000211954
-0.00021556
-0.00021406
-0.000207873
-0.000197715
-0.000184487
-0.000169163
-0.000152678
-0.000135854
-0.000119355
-0.000103676
-8.91526e-05
-7.59804e-05
-6.42435e-05
-5.3941e-05
-4.50126e-05
-3.73592e-05
-3.08606e-05
-2.53871e-05
-2.08097e-05
-1.70049e-05
-1.38592e-05
-1.12703e-05
-9.1482e-06
-7.41455e-06
-6.00223e-06
-4.8543e-06
-3.92301e-06
-3.16861e-06
-2.55828e-06
-2.06503e-06
-1.66674e-06
-1.34534e-06
-1.08607e-06
-8.76945e-07
-7.08327e-07
-5.72474e-07
-4.63199e-07
-3.75515e-07
-3.05369e-07
-2.49394e-07
-2.04771e-07
-1.69108e-07
-1.40387e-07
-1.16904e-07
-9.72387e-08
-8.01909e-08
-6.47333e-08
-4.99183e-08
-3.45935e-08
-1.97611e-08
0.000124672
0.000124461
0.000123926
0.000123067
0.000121871
0.000120289
0.000118253
0.000115682
0.000112479
0.000108527
0.000103693
9.78236e-05
9.07511e-05
8.22938e-05
7.22644e-05
6.04792e-05
4.6773e-05
3.10174e-05
1.31455e-05
-6.82017e-06
-2.87365e-05
-5.23098e-05
-7.70717e-05
-0.000102367
-0.000127363
-0.000151083
-0.000172475
-0.000190503
-0.000204264
-0.0002131
-0.00021669
-0.000215097
-0.000208755
-0.000198401
-0.000184963
-0.000169435
-0.00015277
-0.000135799
-0.000119189
-0.000103434
-8.88649e-05
-7.56717e-05
-6.39328e-05
-5.36418e-05
-4.47338e-05
-3.7106e-05
-3.06351e-05
-2.51897e-05
-2.06392e-05
-1.68593e-05
-1.37361e-05
-1.11671e-05
-9.06225e-06
-7.34345e-06
-5.94373e-06
-4.80641e-06
-3.88397e-06
-3.13691e-06
-2.53264e-06
-2.04437e-06
-1.65017e-06
-1.3321e-06
-1.07552e-06
-8.68568e-07
-7.01685e-07
-5.67216e-07
-4.59047e-07
-3.72253e-07
-3.02823e-07
-2.47423e-07
-2.03253e-07
-1.67936e-07
-1.39464e-07
-1.16147e-07
-9.65786e-08
-7.95794e-08
-6.41438e-08
-4.93532e-08
-3.41074e-08
-1.94133e-08
0.000124791
0.000124584
0.000124059
0.000123216
0.000122042
0.000120488
0.000118488
0.00011596
0.000112807
0.000108914
0.000104145
9.8349e-05
9.13541e-05
8.29764e-05
7.3024e-05
6.13068e-05
4.76511e-05
3.19179e-05
1.40282e-05
-6.00865e-06
-2.80619e-05
-5.18474e-05
-7.69003e-05
-0.000102561
-0.000127979
-0.000152149
-0.000173979
-0.000192386
-0.000206418
-0.000215383
-0.000218941
-0.000217161
-0.000210509
-0.000199764
-0.000185905
-0.000169972
-0.000152949
-0.000135687
-0.000118857
-0.000102952
-8.82924e-05
-7.50583e-05
-6.3316e-05
-5.30484e-05
-4.41811e-05
-3.66041e-05
-3.01884e-05
-2.47987e-05
-2.03016e-05
-1.65711e-05
-1.34924e-05
-1.09628e-05
-8.8922e-06
-7.20279e-06
-5.82803e-06
-4.71171e-06
-3.80678e-06
-3.07425e-06
-2.48197e-06
-2.00357e-06
-1.61746e-06
-1.30599e-06
-1.05476e-06
-8.52107e-07
-6.8867e-07
-5.56958e-07
-4.50999e-07
-3.65987e-07
-2.98001e-07
-2.43767e-07
-2.00523e-07
-1.65917e-07
-1.37966e-07
-1.15003e-07
-9.56545e-08
-7.87795e-08
-6.34165e-08
-4.8701e-08
-3.3605e-08
-1.92017e-08
0.000124965
0.000124764
0.000124254
0.000123435
0.000122294
0.000120782
0.000118834
0.000116369
0.00011329
0.000109483
0.000104812
9.91237e-05
9.2244e-05
8.39847e-05
7.41471e-05
6.25318e-05
4.89525e-05
3.32548e-05
1.53412e-05
-4.79833e-06
-2.70519e-05
-5.11499e-05
-7.66338e-05
-0.000102837
-0.000128884
-0.000153728
-0.000176214
-0.000195188
-0.000209629
-0.000218786
-0.000222295
-0.000220235
-0.000213115
-0.000201783
-0.000187294
-0.000170756
-0.000153201
-0.000135507
-0.000118354
-0.000102228
-8.74378e-05
-7.41455e-05
-6.24003e-05
-5.21688e-05
-4.33631e-05
-3.58623e-05
-2.9529e-05
-2.4222e-05
-1.98039e-05
-1.61465e-05
-1.31336e-05
-1.06621e-05
-8.64204e-06
-6.99594e-06
-5.65792e-06
-4.57247e-06
-3.69329e-06
-2.98208e-06
-2.4074e-06
-1.94348e-06
-1.56923e-06
-1.26742e-06
-1.02402e-06
-8.27663e-07
-6.69262e-07
-5.41575e-07
-4.38846e-07
-3.56443e-07
-2.90571e-07
-2.38042e-07
-1.96148e-07
-1.62574e-07
-1.35369e-07
-1.12908e-07
-9.38627e-08
-7.71514e-08
-6.18787e-08
-4.72606e-08
-3.23808e-08
-1.84689e-08
0.00012519
0.000124997
0.000124507
0.000123719
0.00012262
0.000121162
0.000119282
0.000116899
0.000113917
0.000110222
0.000105679
0.000100131
9.34027e-05
8.5299e-05
7.5613e-05
6.41332e-05
5.0657e-05
3.50095e-05
1.70694e-05
-3.19967e-06
-2.57109e-05
-5.02149e-05
-7.6262e-05
-0.000103177
-0.000130056
-0.000155792
-0.00017915
-0.00019888
-0.000213866
-0.000223281
-0.000226724
-0.000224288
-0.00021654
-0.000204426
-0.000189101
-0.000171762
-0.000153508
-0.000135248
-0.000117675
-0.000101265
-8.6308e-05
-7.2944e-05
-6.11986e-05
-5.10174e-05
-4.22945e-05
-3.48946e-05
-2.86699e-05
-2.34714e-05
-1.91569e-05
-1.5595e-05
-1.26679e-05
-1.02721e-05
-8.31769e-06
-6.72789e-06
-5.4376e-06
-4.39223e-06
-3.54644e-06
-2.86291e-06
-2.31106e-06
-1.86592e-06
-1.50707e-06
-1.21781e-06
-9.84566e-07
-7.96387e-07
-6.44534e-07
-5.22094e-07
-4.23588e-07
-3.4461e-07
-2.81525e-07
-2.31253e-07
-1.91153e-07
-1.58957e-07
-1.32758e-07
-1.10983e-07
-9.23721e-08
-7.592e-08
-6.0819e-08
-4.63826e-08
-3.18022e-08
-1.8399e-08
0.000125462
0.000125278
0.000124811
0.00012406
0.000123012
0.000121621
0.000119822
0.000117538
0.000114674
0.000111115
0.000106727
0.000101351
9.48065e-05
8.68936e-05
7.73946e-05
6.60833e-05
5.27375e-05
3.71574e-05
1.91919e-05
-1.2275e-06
-2.4046e-05
-4.90399e-05
-7.57728e-05
-0.000103561
-0.000131464
-0.000158304
-0.000182748
-0.000203422
-0.000219089
-0.000228827
-0.000232186
-0.000229275
-0.000220743
-0.00020765
-0.000191286
-0.000172958
-0.000153845
-0.000134898
-0.000116817
-0.000100066
-8.49131e-05
-7.14681e-05
-5.97281e-05
-4.96126e-05
-4.09937e-05
-3.3719e-05
-2.76278e-05
-2.25623e-05
-1.83741e-05
-1.49283e-05
-1.21055e-05
-9.80133e-06
-7.92644e-06
-6.40471e-06
-5.17204e-06
-4.175e-06
-3.36945e-06
-2.71921e-06
-2.19483e-06
-1.77226e-06
-1.43189e-06
-1.15768e-06
-9.3661e-07
-7.58198e-07
-6.14152e-07
-4.97952e-07
-4.04461e-07
-3.29542e-07
-2.69753e-07
-2.2214e-07
-1.84138e-07
-1.53536e-07
-1.28481e-07
-1.07464e-07
-8.93111e-08
-7.3113e-08
-5.81695e-08
-4.39138e-08
-2.96927e-08
-1.70605e-08
0.000125772
0.000125599
0.000125159
0.000124451
0.000123461
0.000122145
0.000120441
0.000118271
0.000115542
0.000112142
0.000107932
0.000102755
9.64259e-05
8.87363e-05
7.94574e-05
6.83465e-05
5.51586e-05
3.96649e-05
2.16798e-05
1.09613e-06
-2.20697e-05
-4.76263e-05
-7.51545e-05
-0.000103964
-0.000133071
-0.00016122
-0.000186954
-0.000208757
-0.000225241
-0.000235364
-0.00023862
-0.000235138
-0.000225662
-0.000211401
-0.0001938
-0.000174306
-0.000154188
-0.000134442
-0.000115776
-9.86392e-05
-8.32677e-05
-6.97377e-05
-5.80117e-05
-4.79785e-05
-3.94849e-05
-3.23586e-05
-2.64245e-05
-2.15142e-05
-1.74729e-05
-1.41618e-05
-1.14595e-05
-9.26119e-06
-7.47795e-06
-6.03457e-06
-4.86818e-06
-3.92667e-06
-3.16731e-06
-2.55529e-06
-2.06243e-06
-1.66578e-06
-1.34664e-06
-1.08973e-06
-8.82638e-07
-7.15454e-07
-5.80387e-07
-4.71381e-07
-3.83695e-07
-3.135e-07
-2.57574e-07
-2.13102e-07
-1.77606e-07
-1.48934e-07
-1.25297e-07
-1.05265e-07
-8.7761e-08
-7.19895e-08
-5.73718e-08
-4.34629e-08
-2.97098e-08
-1.76541e-08
0.000126113
0.000125952
0.000125542
0.000124881
0.000123956
0.000122724
0.000121124
0.000119081
0.000116503
0.000113277
0.000109268
0.000104314
9.82259e-05
9.07884e-05
8.17599e-05
7.08792e-05
5.78763e-05
4.249e-05
2.44954e-05
3.7411e-06
-1.98015e-05
-4.59795e-05
-7.43968e-05
-0.000104358
-0.000134835
-0.000164482
-0.000191703
-0.000214811
-0.000232243
-0.000242815
-0.000245949
-0.000241798
-0.000231223
-0.000215608
-0.000196587
-0.000175762
-0.000154507
-0.000133867
-0.000114555
-9.69966e-05
-8.1393e-05
-6.77793e-05
-5.60788e-05
-4.61454e-05
-3.77976e-05
-3.08413e-05
-2.50851e-05
-2.03498e-05
-1.64733e-05
-1.33126e-05
-1.07445e-05
-8.66392e-06
-6.98237e-06
-5.62579e-06
-4.5327e-06
-3.65251e-06
-2.94407e-06
-2.37414e-06
-1.91594e-06
-1.54778e-06
-1.25195e-06
-1.01399e-06
-8.22172e-07
-6.67203e-07
-5.41862e-07
-4.40614e-07
-3.5916e-07
-2.94018e-07
-2.42204e-07
-2.01052e-07
-1.68174e-07
-1.41483e-07
-1.19257e-07
-1.00155e-07
-8.32061e-08
-6.77432e-08
-5.33224e-08
-3.96435e-08
-2.63456e-08
-1.53051e-08
0.000126476
0.000126328
0.00012595
0.00012534
0.000124485
0.000123342
0.000121854
0.000119947
0.000117532
0.000114495
0.000110703
0.000105991
0.000100166
9.30052e-05
8.42531e-05
7.36296e-05
6.08376e-05
4.55807e-05
2.75908e-05
6.66711e-06
-1.72699e-05
-4.41128e-05
-7.34941e-05
-0.000104717
-0.000136709
-0.000168023
-0.000196911
-0.000221491
-0.000239996
-0.000251075
-0.000254068
-0.000249156
-0.000237334
-0.000220192
-0.000199579
-0.000177279
-0.000154777
-0.000133166
-0.00011316
-9.51581e-05
-7.93169e-05
-6.56261e-05
-5.39649e-05
-4.41492e-05
-3.59666e-05
-2.91994e-05
-2.36394e-05
-1.90955e-05
-1.53984e-05
-1.2401e-05
-9.97805e-06
-8.02447e-06
-6.45247e-06
-5.18928e-06
-4.17493e-06
-3.36055e-06
-2.70672e-06
-2.18191e-06
-1.7609e-06
-1.42331e-06
-1.15252e-06
-9.34923e-07
-7.59536e-07
-6.17717e-07
-5.02873e-07
-4.10033e-07
-3.35387e-07
-2.7582e-07
-2.28603e-07
-1.91224e-07
-1.61384e-07
-1.37062e-07
-1.16609e-07
-9.87729e-08
-8.27024e-08
-6.78604e-08
-5.39401e-08
-4.07642e-08
-2.80217e-08
-1.73727e-08
0.000126853
0.000126718
0.000126373
0.000125816
0.000125034
0.000123985
0.000122614
0.00012085
0.000118604
0.000115767
0.000112203
0.000107747
0.000102202
9.53362e-05
8.68818e-05
7.65382e-05
6.39803e-05
4.88747e-05
3.09068e-05
9.8224e-06
-1.45147e-05
-4.20487e-05
-7.24471e-05
-0.000105017
-0.00013864
-0.000171766
-0.000202479
-0.000228679
-0.00024837
-0.000260012
-0.000262846
-0.000257086
-0.000243881
-0.000225056
-0.000202705
-0.000178808
-0.000154971
-0.000132335
-0.000111608
-9.31515e-05
-7.7076e-05
-6.33194e-05
-5.1713e-05
-4.20322e-05
-3.40317e-05
-2.74696e-05
-2.21201e-05
-1.77802e-05
-1.42732e-05
-1.1448e-05
-9.17776e-06
-7.3574e-06
-5.90007e-06
-4.73441e-06
-3.80216e-06
-3.05624e-06
-2.45911e-06
-1.98107e-06
-1.59854e-06
-1.29255e-06
-1.04758e-06
-8.50904e-07
-6.9231e-07
-5.63849e-07
-4.5959e-07
-3.7517e-07
-3.07291e-07
-2.53226e-07
-2.10501e-07
-1.76755e-07
-1.49775e-07
-1.27608e-07
-1.08677e-07
-9.18317e-08
-7.63435e-08
-6.18149e-08
-4.80842e-08
-3.51287e-08
-2.28696e-08
-1.34678e-08
0.000127233
0.000127111
0.0001268
0.000126298
0.000125589
0.000124635
0.000123384
0.000121765
0.000119694
0.000117061
0.000113732
0.00010954
0.000104284
9.77262e-05
8.95841e-05
7.95377e-05
6.72333e-05
5.22992e-05
3.43726e-05
1.31425e-05
-1.15882e-05
-3.98214e-05
-7.12659e-05
-0.000105237
-0.000140577
-0.000175626
-0.000208289
-0.000236233
-0.000257207
-0.000269459
-0.000272119
-0.000265435
-0.000250731
-0.000230092
-0.000205886
-0.000180303
-0.000155074
-0.000131382
-0.000109922
-9.10147e-05
-7.4716e-05
-6.09086e-05
-4.93732e-05
-3.98426e-05
-3.20382e-05
-2.56931e-05
-2.05639e-05
-1.64362e-05
-1.31258e-05
-1.0478e-05
-8.36458e-06
-6.68072e-06
-5.34067e-06
-4.27463e-06
-3.42612e-06
-2.74995e-06
-2.21057e-06
-1.78017e-06
-1.43689e-06
-1.16318e-06
-9.44617e-07
-7.69393e-07
-6.28046e-07
-5.13354e-07
-4.20076e-07
-3.44486e-07
-2.83811e-07
-2.35711e-07
-1.97956e-07
-1.6832e-07
-1.44668e-07
-1.25106e-07
-1.08134e-07
-9.27094e-08
-7.8231e-08
-6.44422e-08
-5.13174e-08
-3.89379e-08
-2.71881e-08
-1.77424e-08
0.000127607
0.000127498
0.000127221
0.000126772
0.000126136
0.000125278
0.000124145
0.000122671
0.000120774
0.000118345
0.00011525
0.000111324
0.000106362
0.000100116
9.22935e-05
8.25547e-05
7.05174e-05
5.57717e-05
3.79058e-05
1.655e-05
-8.55686e-06
-3.74787e-05
-6.99718e-05
-0.000105367
-0.000142467
-0.000179507
-0.000214208
-0.000243985
-0.000266317
-0.000279216
-0.00028169
-0.000274022
-0.000257729
-0.000235182
-0.000209041
-0.00018172
-0.000155074
-0.000130322
-0.000108138
-8.87959e-05
-7.2292e-05
-5.84511e-05
-4.70019e-05
-3.76336e-05
-3.00345e-05
-2.39131e-05
-1.90088e-05
-1.5096e-05
-1.19837e-05
-9.51373e-06
-7.55711e-06
-6.0093e-06
-4.78586e-06
-3.81865e-06
-3.05297e-06
-2.44563e-06
-1.96308e-06
-1.57946e-06
-1.27463e-06
-1.03245e-06
-8.39595e-07
-6.8511e-07
-5.603e-07
-4.58678e-07
-3.75717e-07
-3.08343e-07
-2.54311e-07
-2.11653e-07
-1.78362e-07
-1.52327e-07
-1.3147e-07
-1.13957e-07
-9.8371e-08
-8.37871e-08
-6.97472e-08
-5.61459e-08
-4.31069e-08
-3.08685e-08
-1.95979e-08
-1.17056e-08
0.000127965
0.000127869
0.000127625
0.000127227
0.000126662
0.000125895
0.000124877
0.000123545
0.000121815
0.000119585
0.000116721
0.000113055
0.00010838
0.000102443
9.49396e-05
8.55104e-05
7.37466e-05
5.9201e-05
4.14132e-05
1.99551e-05
-5.50056e-06
-3.50825e-05
-6.85989e-05
-0.000105401
-0.000144263
-0.000183312
-0.000220086
-0.000251744
-0.000275476
-0.000289044
-0.000291324
-0.000282637
-0.000264702
-0.000240198
-0.00021209
-0.000183023
-0.000154972
-0.000129183
-0.000106305
-8.65544e-05
-6.98685e-05
-5.60122e-05
-4.46618e-05
-3.54638e-05
-2.80739e-05
-2.21769e-05
-1.74963e-05
-1.37957e-05
-1.08781e-05
-8.58234e-06
-6.77874e-06
-5.36349e-06
-4.25351e-06
-3.38231e-06
-2.69704e-06
-2.15645e-06
-1.72902e-06
-1.39083e-06
-1.12346e-06
-9.12086e-07
-7.44426e-07
-6.10338e-07
-5.01864e-07
-4.13245e-07
-3.40675e-07
-2.81729e-07
-2.34675e-07
-1.97888e-07
-1.69542e-07
-1.47604e-07
-1.30032e-07
-1.15037e-07
-1.01289e-07
-8.79921e-08
-7.48407e-08
-6.1886e-08
-4.93886e-08
-3.76673e-08
-2.6757e-08
-1.83181e-08
0.000128298
0.000128214
0.000128
0.000127651
0.000127152
0.000126471
0.000125562
0.000124362
0.000122792
0.00012075
0.000118103
0.000114685
0.000110286
0.000104646
9.74502e-05
8.83232e-05
7.68307e-05
6.24897e-05
4.47937e-05
2.32572e-05
-2.5119e-06
-3.27083e-05
-6.7195e-05
-0.00010535
-0.000145921
-0.000186941
-0.000225764
-0.000259295
-0.000284429
-0.000298671
-0.000300757
-0.000291043
-0.000271461
-0.000245005
-0.000214955
-0.000184185
-0.00015478
-0.000128008
-0.00010448
-8.43584e-05
-6.7517e-05
-5.3662e-05
-4.24187e-05
-3.33929e-05
-2.62091e-05
-2.05305e-05
-1.60655e-05
-1.25681e-05
-9.83584e-06
-7.70527e-06
-6.04631e-06
-4.75599e-06
-3.75267e-06
-2.97146e-06
-2.36128e-06
-1.8828e-06
-1.50646e-06
-1.21027e-06
-9.774e-07
-7.94301e-07
-6.49622e-07
-5.33963e-07
-4.40059e-07
-3.62863e-07
-2.99282e-07
-2.47531e-07
-2.06368e-07
-1.74474e-07
-1.50166e-07
-1.3145e-07
-1.16296e-07
-1.02954e-07
-9.01897e-08
-7.73484e-08
-6.42978e-08
-5.12615e-08
-3.86588e-08
-2.69699e-08
-1.65659e-08
-1.00782e-08
0.000128596
0.000128523
0.000128337
0.000128032
0.000127594
0.000126992
0.00012618
0.000125102
0.000123678
0.000121807
0.000119361
0.000116171
0.000112026
0.000106661
9.97535e-05
9.09113e-05
7.96776e-05
6.55373e-05
4.79406e-05
2.63485e-05
3.06916e-07
-3.04432e-05
-6.58202e-05
-0.000105231
-0.000147408
-0.000190294
-0.000231076
-0.000266408
-0.0002929
-0.000307799
-0.000309697
-0.000298985
-0.000277806
-0.000249469
-0.000217566
-0.000185188
-0.000154523
-0.000126847
-0.000102733
-8.22844e-05
-6.53153e-05
-5.14756e-05
-4.03425e-05
-3.14838e-05
-2.44962e-05
-1.90229e-05
-1.47589e-05
-1.14499e-05
-8.88888e-06
-6.91035e-06
-5.38422e-06
-4.20852e-06
-3.30294e-06
-2.60414e-06
-2.06267e-06
-1.641e-06
-1.31145e-06
-1.05382e-06
-8.52791e-07
-6.95939e-07
-5.72718e-07
-4.74372e-07
-3.94253e-07
-3.2798e-07
-2.73139e-07
-2.28552e-07
-1.93429e-07
-1.66705e-07
-1.46794e-07
-1.31698e-07
-1.19372e-07
-1.0809e-07
-9.67117e-08
-8.47343e-08
-7.22065e-08
-5.95282e-08
-4.72592e-08
-3.59428e-08
-2.57446e-08
-1.83561e-08
0.000128853
0.000128789
0.000128627
0.00012836
0.000127975
0.000127442
0.000126717
0.000125744
0.000124448
0.000122729
0.000120459
0.00011747
0.00011355
0.000108431
0.000101781
9.31954e-05
8.21977e-05
6.82441e-05
5.07469e-05
2.91186e-05
2.8486e-06
-2.83819e-05
-6.45442e-05
-0.000105077
-0.000148699
-0.000193282
-0.000235856
-0.000272849
-0.0003006
-0.000316111
-0.000317836
-0.000306195
-0.000283533
-0.00025346
-0.000219861
-0.000186028
-0.000154235
-0.000125761
-0.000101137
-8.04119e-05
-6.33419e-05
-4.95265e-05
-3.84995e-05
-2.97952e-05
-2.29855e-05
-1.76964e-05
-1.36116e-05
-1.04696e-05
-8.05953e-06
-6.21458e-06
-4.8048e-06
-3.72921e-06
-2.90877e-06
-2.28147e-06
-1.79935e-06
-1.42647e-06
-1.13691e-06
-9.12096e-07
-7.38061e-07
-6.03349e-07
-4.98085e-07
-4.14039e-07
-3.45096e-07
-2.87474e-07
-2.39391e-07
-2.0023e-07
-1.69608e-07
-1.46679e-07
-1.29913e-07
-1.17284e-07
-1.06709e-07
-9.64825e-08
-8.55569e-08
-7.35867e-08
-6.08074e-08
-4.78013e-08
-3.52863e-08
-2.39605e-08
-1.43395e-08
-9.14962e-09
0.00012906
0.000129005
0.000128862
0.000128627
0.000128286
0.000127809
0.000127156
0.000126271
0.000125081
0.000123489
0.000121366
0.000118545
0.000114815
0.000109902
0.00010347
9.51024e-05
8.4307e-05
7.05164e-05
5.31103e-05
3.14603e-05
5.00694e-06
-2.66206e-05
-6.34413e-05
-0.000104923
-0.00014978
-0.000195821
-0.000239947
-0.000278387
-0.000307241
-0.000323292
-0.000324865
-0.000312407
-0.000288445
-0.000256858
-0.00022179
-0.000186708
-0.000153959
-0.000124816
-9.9771e-05
-7.88212e-05
-6.16751e-05
-4.78874e-05
-3.69556e-05
-2.83852e-05
-2.17277e-05
-1.65952e-05
-1.26617e-05
-9.66027e-06
-7.37682e-06
-5.64365e-06
-4.33114e-06
-3.33919e-06
-2.58987e-06
-2.0223e-06
-1.58971e-06
-1.25757e-06
-1.00147e-06
-8.04251e-07
-6.53075e-07
-5.3728e-07
-4.47498e-07
-3.75891e-07
-3.16761e-07
-2.66832e-07
-2.24868e-07
-1.90742e-07
-1.64421e-07
-1.45233e-07
-1.3167e-07
-1.21654e-07
-1.13051e-07
-1.04162e-07
-9.40229e-08
-8.24352e-08
-6.98103e-08
-5.68971e-08
-4.45373e-08
-3.34684e-08
-2.39675e-08
-1.77591e-08
0.000129212
0.000129163
0.000129036
0.000128826
0.000128518
0.000128084
0.000127486
0.000126669
0.000125561
0.000124065
0.000122055
0.000119365
0.000115781
0.000111029
0.000104765
9.65685e-05
8.59322e-05
7.22709e-05
5.49392e-05
3.32763e-05
6.68413e-06
-2.52501e-05
-6.25843e-05
-0.000104812
-0.000150644
-0.000197844
-0.00024321
-0.000282812
-0.000312556
-0.000329043
-0.000330494
-0.000317377
-0.000292363
-0.000259556
-0.000223314
-0.000187242
-0.00015374
-0.000124076
-9.87054e-05
-7.75849e-05
-6.03835e-05
-4.6621e-05
-3.57655e-05
-2.73007e-05
-2.07623e-05
-1.57514e-05
-1.19351e-05
-9.04186e-06
-6.8556e-06
-5.20793e-06
-3.96958e-06
-3.04122e-06
-2.34578e-06
-1.82322e-06
-1.42772e-06
-1.12585e-06
-8.94423e-07
-7.17409e-07
-5.82888e-07
-4.80784e-07
-4.02085e-07
-3.39212e-07
-2.86773e-07
-2.41886e-07
-2.0376e-07
-1.7268e-07
-1.48898e-07
-1.31877e-07
-1.20118e-07
-1.11481e-07
-1.03777e-07
-9.53054e-08
-8.51714e-08
-7.33046e-08
-6.02708e-08
-4.69664e-08
-3.43561e-08
-2.32938e-08
-1.43388e-08
-1.00279e-08
0.000129305
0.00012926
0.000129143
0.000128949
0.000128663
0.000128259
0.000127697
0.000126925
0.000125872
0.000124441
0.000122507
0.000119904
0.000116418
0.000111774
0.000105625
9.7543e-05
8.70143e-05
7.34404e-05
5.61588e-05
3.44865e-05
7.79844e-06
-2.43474e-05
-6.20365e-05
-0.000104781
-0.000151291
-0.000199299
-0.000245533
-0.000285949
-0.00031632
-0.000333114
-0.000334478
-0.000320892
-0.000295136
-0.00026147
-0.000224405
-0.000187643
-0.000153621
-0.000123597
-9.8003e-05
-7.67657e-05
-5.95265e-05
-4.57808e-05
-3.4977e-05
-2.65836e-05
-2.01255e-05
-1.51965e-05
-1.14589e-05
-8.63829e-06
-6.51711e-06
-4.92663e-06
-3.73784e-06
-2.852e-06
-2.19259e-06
-1.70011e-06
-1.32936e-06
-1.04768e-06
-8.32724e-07
-6.69282e-07
-5.4605e-07
-4.53334e-07
-3.82317e-07
-3.25553e-07
-2.77831e-07
-2.36533e-07
-2.01187e-07
-1.72377e-07
-1.50566e-07
-1.35304e-07
-1.25081e-07
-1.17694e-07
-1.10891e-07
-1.02957e-07
-9.30422e-08
-8.11709e-08
-6.80272e-08
-5.46203e-08
-4.19947e-08
-3.1019e-08
-2.20511e-08
-1.683e-08
0.000129336
0.000129293
0.000129181
0.000128994
0.000128719
0.000128328
0.000127783
0.000127033
0.000126005
0.000124605
0.000122707
0.000120145
0.000116706
0.000112113
0.000106018
9.79905e-05
8.75119e-05
7.39777e-05
5.67165e-05
3.50339e-05
8.29143e-06
-2.39681e-05
-6.18443e-05
-0.000104859
-0.000151721
-0.000200149
-0.000246832
-0.000287671
-0.000318365
-0.000335317
-0.000336633
-0.0003228
-0.000296654
-0.00026254
-0.000225046
-0.000187926
-0.000153632
-0.00012342
-9.77081e-05
-7.64069e-05
-5.91441e-05
-4.54027e-05
-3.46209e-05
-2.62596e-05
-1.98384e-05
-1.49472e-05
-1.12461e-05
-8.45906e-06
-6.36785e-06
-4.80355e-06
-3.63733e-06
-2.77071e-06
-2.12743e-06
-1.64824e-06
-1.2882e-06
-1.01503e-06
-8.06836e-07
-6.4884e-07
-5.30062e-07
-4.40976e-07
-3.72823e-07
-3.18184e-07
-2.71913e-07
-2.31529e-07
-1.96744e-07
-1.68317e-07
-1.46835e-07
-1.31895e-07
-1.21957e-07
-1.14756e-07
-1.07979e-07
-9.988e-08
-8.96258e-08
-7.72968e-08
-6.36544e-08
-4.97871e-08
-3.68073e-08
-2.56491e-08
-1.6831e-08
-1.25324e-08
0.000129304
0.00012926
0.000129147
0.000128959
0.000128681
0.000128289
0.000127741
0.000126987
0.000125955
0.000124551
0.000122648
0.00012008
0.000116634
0.000112034
0.00010593
9.78934e-05
8.74046e-05
7.3859e-05
5.65856e-05
3.48898e-05
8.13354e-06
-2.41403e-05
-6.20309e-05
-0.000105059
-0.000151935
-0.000200374
-0.000247065
-0.000287909
-0.000318604
-0.000335552
-0.00033686
-0.000323017
-0.000296859
-0.000262733
-0.000225227
-0.000188095
-0.000153791
-0.000123568
-9.78441e-05
-7.65316e-05
-5.92578e-05
-4.55058e-05
-3.47141e-05
-2.63436e-05
-1.99138e-05
-1.50148e-05
-1.13065e-05
-8.51303e-06
-6.41591e-06
-4.84628e-06
-3.67531e-06
-2.80451e-06
-2.15755e-06
-1.67507e-06
-1.31206e-06
-1.03621e-06
-8.25637e-07
-6.65582e-07
-5.45065e-07
-4.54517e-07
-3.85104e-07
-3.29334e-07
-2.82014e-07
-2.4066e-07
-2.05016e-07
-1.75882e-07
-1.53867e-07
-1.38558e-07
-1.28372e-07
-1.20979e-07
-1.14e-07
-1.05645e-07
-9.50614e-08
-8.23403e-08
-6.82739e-08
-5.39902e-08
-4.06351e-08
-2.91544e-08
-1.99944e-08
-1.50962e-08
0.000129207
0.000129161
0.000129042
0.000128843
0.000128552
0.000128141
0.000127571
0.000126789
0.000125724
0.000124279
0.00012233
0.00011971
0.000116203
0.000111537
0.000105362
9.72527e-05
8.66932e-05
7.30857e-05
5.57676e-05
3.40561e-05
7.32693e-06
-2.48615e-05
-6.25934e-05
-0.000105379
-0.000151928
-0.000199969
-0.000246227
-0.000286658
-0.00031703
-0.000333813
-0.000335155
-0.000321538
-0.000295746
-0.000262045
-0.000224945
-0.00018815
-0.000154094
-0.000124037
-9.84091e-05
-7.71381e-05
-5.98661e-05
-4.60891e-05
-3.52557e-05
-2.68346e-05
-2.03509e-05
-1.53985e-05
-1.16395e-05
-8.79935e-06
-6.66035e-06
-5.05375e-06
-3.85056e-06
-2.95194e-06
-2.28119e-06
-1.77853e-06
-1.39854e-06
-1.10845e-06
-8.8595e-07
-7.15897e-07
-5.86987e-07
-4.89402e-07
-4.14113e-07
-3.53459e-07
-3.02098e-07
-2.57406e-07
-2.19006e-07
-1.876e-07
-1.63721e-07
-1.46893e-07
-1.35478e-07
-1.27085e-07
-1.19276e-07
-1.102e-07
-9.89559e-08
-8.55986e-08
-7.0904e-08
-5.59993e-08
-4.20406e-08
-2.99894e-08
-2.03142e-08
-1.5004e-08
0.000129049
0.000128999
0.000128867
0.00012865
0.000128333
0.000127889
0.000127277
0.000126443
0.000125315
0.000123797
0.000121762
0.000119042
0.000115425
0.000110635
0.000104331
9.60878e-05
8.54008e-05
7.1684e-05
5.42922e-05
3.25651e-05
5.90542e-06
-2.60985e-05
-6.35027e-05
-0.000105798
-0.000151693
-0.000198946
-0.000244352
-0.000283977
-0.000313724
-0.000330193
-0.000331608
-0.000318439
-0.000293368
-0.000260503
-0.000224204
-0.000188078
-0.000154522
-0.000124802
-9.93759e-05
-7.82e-05
-6.09448e-05
-4.71306e-05
-3.62264e-05
-2.7716e-05
-2.11355e-05
-1.6086e-05
-1.22344e-05
-9.30895e-06
-7.09334e-06
-5.41913e-06
-4.15705e-06
-3.20767e-06
-2.49361e-06
-1.95438e-06
-1.5438e-06
-1.22827e-06
-9.84618e-07
-7.96927e-07
-6.53261e-07
-5.43352e-07
-4.57847e-07
-3.88823e-07
-3.30674e-07
-2.805e-07
-2.37649e-07
-2.02586e-07
-1.7567e-07
-1.56315e-07
-1.42816e-07
-1.32734e-07
-1.23581e-07
-1.13435e-07
-1.01317e-07
-8.7205e-08
-7.18071e-08
-5.62064e-08
-4.15377e-08
-2.87663e-08
-1.84301e-08
-1.28909e-08
0.000128833
0.000128776
0.000128628
0.000128383
0.00012803
0.000127537
0.000126865
0.000125957
0.00012474
0.000123117
0.000120958
0.000118097
0.000114321
0.000109357
0.000102867
9.44358e-05
8.35705e-05
6.97036e-05
5.22151e-05
3.04771e-05
3.93139e-06
-2.77912e-05
-6.47071e-05
-0.000106281
-0.000151222
-0.000197335
-0.000241515
-0.000279985
-0.000308844
-0.00032487
-0.000326394
-0.000313869
-0.000289829
-0.000258163
-0.000223018
-0.000187861
-0.000155037
-0.000125818
-0.000100697
-7.9671e-05
-6.2451e-05
-4.85926e-05
-3.75937e-05
-2.89605e-05
-2.2245e-05
-1.70592e-05
-1.3077e-05
-1.0031e-05
-7.70689e-06
-5.93692e-06
-4.59142e-06
-3.57018e-06
-2.79485e-06
-2.20398e-06
-1.75031e-06
-1.39906e-06
-1.12583e-06
-9.13568e-07
-7.49425e-07
-6.22484e-07
-5.22946e-07
-4.42518e-07
-3.75221e-07
-3.1774e-07
-2.69006e-07
-2.29121e-07
-1.98181e-07
-1.75449e-07
-1.59152e-07
-1.46818e-07
-1.35921e-07
-1.24472e-07
-1.11391e-07
-9.65385e-08
-8.0511e-08
-6.43013e-08
-4.89804e-08
-3.54603e-08
-2.41478e-08
-1.70101e-08
0.000128564
0.000128498
0.000128328
0.000128049
0.000127648
0.000127095
0.000126346
0.000125344
0.000124013
0.000122255
0.00011994
0.000116899
0.000112922
0.000107738
0.000101015
9.23492e-05
8.12634e-05
6.7214e-05
4.96135e-05
2.78752e-05
1.49001e-06
-2.98586e-05
-6.61389e-05
-0.000106785
-0.000150511
-0.000195182
-0.000237822
-0.000274852
-0.000302608
-0.000318089
-0.000319754
-0.00030803
-0.000285274
-0.000255104
-0.000221409
-0.000187481
-0.000155595
-0.000127026
-0.000102306
-8.14858e-05
-6.43233e-05
-5.04191e-05
-3.93079e-05
-3.05247e-05
-2.36419e-05
-1.82856e-05
-1.41392e-05
-1.09409e-05
-8.47946e-06
-6.58795e-06
-5.1364e-06
-4.02364e-06
-3.17019e-06
-2.51338e-06
-2.00461e-06
-1.60764e-06
-1.29651e-06
-1.05274e-06
-8.62335e-07
-7.13541e-07
-5.95981e-07
-5.00889e-07
-4.21796e-07
-3.54852e-07
-2.98441e-07
-2.52194e-07
-2.15868e-07
-1.88535e-07
-1.68351e-07
-1.52828e-07
-1.39416e-07
-1.26061e-07
-1.11571e-07
-9.56572e-08
-7.87684e-08
-6.17686e-08
-4.56385e-08
-3.12579e-08
-1.91687e-08
-1.20386e-08
0.000128247
0.000128171
0.000127975
0.000127656
0.000127199
0.000126573
0.000125732
0.000124618
0.000123153
0.000121235
0.000118734
0.000115482
0.000111268
0.000105825
9.8831e-05
8.98931e-05
7.85545e-05
6.43003e-05
4.65812e-05
2.48592e-05
-1.31804e-06
-3.22068e-05
-6.77217e-05
-0.000107265
-0.000149562
-0.00019255
-0.000233407
-0.000268781
-0.000295278
-0.000310143
-0.000311973
-0.000301166
-0.000279878
-0.000251428
-0.000219412
-0.000186923
-0.000156146
-0.000128358
-0.00010413
-8.35697e-05
-6.6491e-05
-5.25461e-05
-4.1313e-05
-3.23605e-05
-2.52858e-05
-1.97321e-05
-1.53945e-05
-1.20181e-05
-9.39549e-06
-7.36106e-06
-5.78467e-06
-4.56415e-06
-3.61869e-06
-2.88423e-06
-2.31061e-06
-1.85986e-06
-1.50426e-06
-1.22364e-06
-1.00265e-06
-8.28548e-07
-6.90238e-07
-5.78371e-07
-4.85887e-07
-4.08292e-07
-3.43321e-07
-2.90038e-07
-2.47794e-07
-2.15437e-07
-1.91037e-07
-1.72096e-07
-1.56049e-07
-1.40783e-07
-1.24983e-07
-1.08197e-07
-9.06947e-08
-7.31807e-08
-5.6505e-08
-4.14277e-08
-2.82433e-08
-1.88846e-08
0.00012789
0.000127802
0.000127578
0.000127212
0.000126691
0.000125983
0.000125039
0.000123798
0.000122181
0.000120083
0.000117374
0.000113884
0.000109404
0.000103674
9.63788e-05
8.71419e-05
7.55291e-05
6.10579e-05
4.32223e-05
2.15382e-05
-4.38439e-06
-3.47371e-05
-6.93786e-05
-0.000107681
-0.000148386
-0.000189518
-0.000228424
-0.000262001
-0.00028714
-0.000301346
-0.000303357
-0.000293539
-0.000273837
-0.000247253
-0.000217076
-0.000186179
-0.000156648
-0.000129747
-0.00010609
-8.58407e-05
-6.88745e-05
-5.48995e-05
-4.35419e-05
-3.44085e-05
-2.71246e-05
-2.13536e-05
-1.68037e-05
-1.32285e-05
-1.04252e-05
-8.22996e-06
-6.51276e-06
-5.17041e-06
-4.12074e-06
-3.2981e-06
-2.65064e-06
-2.13851e-06
-1.73202e-06
-1.40918e-06
-1.1531e-06
-9.49909e-07
-7.87679e-07
-6.5638e-07
-5.48274e-07
-4.58146e-07
-3.83009e-07
-3.21293e-07
-2.71888e-07
-2.33379e-07
-2.03734e-07
-1.80435e-07
-1.60911e-07
-1.42989e-07
-1.25232e-07
-1.07019e-07
-8.84306e-08
-6.99959e-08
-5.24295e-08
-3.64231e-08
-2.24066e-08
-1.3084e-08
0.000127502
0.000127401
0.000127145
0.000126729
0.000126139
0.00012534
0.000124283
0.000122905
0.000121122
0.000118829
0.000115893
0.000112147
0.000107381
0.000101344
9.37281e-05
8.41759e-05
7.22781e-05
5.75876e-05
3.96452e-05
1.80241e-05
-7.60024e-06
-3.73532e-05
-7.10382e-05
-0.000108001
-0.000147006
-0.000186176
-0.000223039
-0.000254745
-0.000278482
-0.000292011
-0.000294212
-0.000285415
-0.000267351
-0.000242709
-0.000214461
-0.000185255
-0.000157063
-0.000131132
-0.00010811
-8.82185e-05
-7.13943e-05
-5.74047e-05
-4.59272e-05
-3.66094e-05
-2.91076e-05
-2.31073e-05
-1.83314e-05
-1.45435e-05
-1.15459e-05
-9.17742e-06
-7.30813e-06
-5.83404e-06
-4.67156e-06
-3.75342e-06
-3.02595e-06
-2.44731e-06
-1.98575e-06
-1.61732e-06
-1.32351e-06
-1.08917e-06
-9.01433e-07
-7.49505e-07
-6.24908e-07
-5.21653e-07
-4.3598e-07
-3.6564e-07
-3.09017e-07
-2.64389e-07
-2.29591e-07
-2.02072e-07
-1.79239e-07
-1.58864e-07
-1.39392e-07
-1.2003e-07
-1.00668e-07
-8.16513e-08
-6.35352e-08
-4.68612e-08
-3.17807e-08
-2.02059e-08
0.000127091
0.000126977
0.000126687
0.000126217
0.000125553
0.00012466
0.000123484
0.000121959
0.000120002
0.000117504
0.000114331
0.000110316
0.000105253
9.88965e-05
9.09514e-05
8.10779e-05
6.88943e-05
5.3991e-05
3.59574e-05
1.44258e-05
-1.08626e-05
-3.99675e-05
-7.264e-05
-0.000108204
-0.000145457
-0.000182623
-0.000217416
-0.000247244
-0.000269582
-0.000282439
-0.000284831
-0.000277049
-0.000260621
-0.000237928
-0.000211637
-0.000184165
-0.000157366
-0.00013246
-0.000110122
-9.06258e-05
-7.39719e-05
-5.99861e-05
-4.83985e-05
-3.88995e-05
-3.11781e-05
-2.49432e-05
-1.99343e-05
-1.59254e-05
-1.2725e-05
-1.01749e-05
-8.14564e-06
-6.53266e-06
-5.251e-06
-4.23169e-06
-3.41924e-06
-2.76978e-06
-2.24945e-06
-1.83231e-06
-1.4981e-06
-1.23034e-06
-1.01514e-06
-8.40872e-07
-6.98283e-07