/*--------------------------------*- C++ -*----------------------------------*\
| =========                 |                                                 |
| \\      /  F ield         | OpenFOAM: The Open Source CFD Toolbox           |
|  \\    /   O peration     | Version:  2512                                  |
|   \\  /    A nd           | Website:  www.openfoam.com                      |
|    \\/     M anipulation  |                                                 |
\*---------------------------------------------------------------------------*/
FoamFile
{
    version     2.0;
    format      ascii;
    arch        "LSB;label=32;scalar=64";
    class       volScalarField;
    location    "100";
    object      k;
}
// * * * * * * * * * * * * * * * * * * * * * * * * * * * * * * * * * * * * * //

dimensions      [0 2 -2 0 0 0 0];

internalField   nonuniform List<scalar> 
335663
(
0.00355999
0.00338664
0.0032285
0.00308371
0.00295068
0.00282806
0.00271471
0.00260965
0.002512
0.00242103
0.0023361
0.00225663
0.00218212
0.00211214
0.00204629
0.00198423
0.00192564
0.00187024
0.0018178
0.00176807
0.00172087
0.00167601
0.00163332
0.00159265
0.00155386
0.00151684
0.00148145
0.00144761
0.0014152
0.00138415
0.00135437
0.00132578
0.00129832
0.00127193
0.00124653
0.00122208
0.00119853
0.00117582
0.00115393
0.00113279
0.00111238
0.00109265
0.00107358
0.00105514
0.00103729
0.00102001
0.00100326
0.000987035
0.0009713
0.000956037
0.000941225
0.000926844
0.000912876
0.000899304
0.000886112
0.000873284
0.000860806
0.000848663
0.000836843
0.000825334
0.000814123
0.000803198
0.000792551
0.000782169
0.000772044
0.000762166
0.000752527
0.000743118
0.000733931
0.000724958
0.000716193
0.000707627
0.000699256
0.000691071
0.000683067
0.000675239
0.00066758
0.000660086
0.000652751
0.000645594
0.00355999
0.00338664
0.0032285
0.00308371
0.00295068
0.00282806
0.00271471
0.00260965
0.002512
0.00242103
0.0023361
0.00225663
0.00218212
0.00211214
0.00204629
0.00198422
0.00192563
0.00187024
0.0018178
0.00176807
0.00172087
0.00167601
0.00163332
0.00159265
0.00155386
0.00151684
0.00148145
0.00144761
0.0014152
0.00138415
0.00135437
0.00132578
0.00129832
0.00127193
0.00124653
0.00122208
0.00119853
0.00117583
0.00115393
0.00113279
0.00111238
0.00109265
0.00107358
0.00105514
0.00103729
0.00102001
0.00100326
0.000987035
0.000971301
0.000956037
0.000941225
0.000926844
0.000912876
0.000899304
0.000886112
0.000873284
0.000860806
0.000848663
0.000836844
0.000825334
0.000814123
0.000803199
0.000792551
0.000782169
0.000772044
0.000762166
0.000752527
0.000743118
0.000733931
0.000724958
0.000716193
0.000707627
0.000699256
0.000691071
0.000683068
0.000675239
0.00066758
0.000660086
0.000652751
0.000645594
0.00355999
0.00338664
0.0032285
0.00308371
0.00295068
0.00282806
0.00271471
0.00260964
0.002512
0.00242103
0.0023361
0.00225663
0.00218212
0.00211214
0.00204629
0.00198422
0.00192563
0.00187024
0.0018178
0.00176807
0.00172087
0.00167601
0.00163332
0.00159265
0.00155386
0.00151684
0.00148145
0.00144761
0.0014152
0.00138415
0.00135437
0.00132578
0.00129832
0.00127193
0.00124653
0.00122208
0.00119853
0.00117583
0.00115393
0.00113279
0.00111238
0.00109265
0.00107359
0.00105514
0.00103729
0.00102001
0.00100326
0.000987035
0.000971301
0.000956038
0.000941225
0.000926844
0.000912876
0.000899304
0.000886112
0.000873284
0.000860806
0.000848664
0.000836844
0.000825334
0.000814123
0.000803199
0.000792551
0.000782169
0.000772044
0.000762166
0.000752527
0.000743118
0.000733931
0.000724958
0.000716193
0.000707628
0.000699256
0.000691071
0.000683068
0.000675239
0.000667581
0.000660086
0.000652751
0.000645594
0.00355999
0.00338664
0.0032285
0.00308371
0.00295068
0.00282806
0.00271471
0.00260964
0.002512
0.00242103
0.0023361
0.00225663
0.00218212
0.00211214
0.00204629
0.00198422
0.00192563
0.00187024
0.00181779
0.00176807
0.00172087
0.00167601
0.00163332
0.00159265
0.00155386
0.00151684
0.00148145
0.00144761
0.0014152
0.00138415
0.00135437
0.00132578
0.00129833
0.00127193
0.00124653
0.00122208
0.00119853
0.00117583
0.00115393
0.00113279
0.00111238
0.00109265
0.00107359
0.00105514
0.00103729
0.00102001
0.00100326
0.000987036
0.000971301
0.000956038
0.000941225
0.000926844
0.000912877
0.000899305
0.000886113
0.000873285
0.000860806
0.000848664
0.000836844
0.000825334
0.000814123
0.000803199
0.000792551
0.00078217
0.000772045
0.000762167
0.000752527
0.000743118
0.000733931
0.000724959
0.000716193
0.000707628
0.000699256
0.000691072
0.000683068
0.00067524
0.000667581
0.000660086
0.000652751
0.000645595
0.00355999
0.00338664
0.0032285
0.00308371
0.00295068
0.00282806
0.00271471
0.00260964
0.002512
0.00242103
0.0023361
0.00225662
0.00218212
0.00211214
0.00204629
0.00198422
0.00192563
0.00187024
0.00181779
0.00176807
0.00172087
0.00167601
0.00163332
0.00159265
0.00155386
0.00151683
0.00148145
0.00144761
0.0014152
0.00138415
0.00135437
0.00132579
0.00129833
0.00127193
0.00124653
0.00122208
0.00119853
0.00117583
0.00115393
0.00113279
0.00111238
0.00109266
0.00107359
0.00105514
0.00103729
0.00102001
0.00100326
0.000987037
0.000971302
0.000956039
0.000941226
0.000926845
0.000912877
0.000899305
0.000886113
0.000873285
0.000860807
0.000848664
0.000836845
0.000825335
0.000814124
0.000803199
0.000792552
0.00078217
0.000772045
0.000762167
0.000752528
0.000743119
0.000733932
0.000724959
0.000716193
0.000707628
0.000699256
0.000691072
0.000683068
0.00067524
0.000667581
0.000660087
0.000652751
0.000645595
0.00355999
0.00338664
0.0032285
0.00308371
0.00295068
0.00282806
0.00271471
0.00260964
0.002512
0.00242103
0.00233609
0.00225662
0.00218212
0.00211214
0.00204629
0.00198422
0.00192563
0.00187024
0.00181779
0.00176807
0.00172087
0.001676
0.00163331
0.00159264
0.00155386
0.00151683
0.00148145
0.0014476
0.0014152
0.00138415
0.00135437
0.00132579
0.00129833
0.00127193
0.00124653
0.00122209
0.00119853
0.00117583
0.00115393
0.00113279
0.00111238
0.00109266
0.00107359
0.00105514
0.00103729
0.00102001
0.00100326
0.000987037
0.000971303
0.000956039
0.000941227
0.000926845
0.000912878
0.000899306
0.000886114
0.000873286
0.000860807
0.000848665
0.000836845
0.000825335
0.000814124
0.0008032
0.000792552
0.00078217
0.000772045
0.000762168
0.000752528
0.000743119
0.000733932
0.000724959
0.000716194
0.000707629
0.000699257
0.000691072
0.000683069
0.00067524
0.000667582
0.000660087
0.000652752
0.000645595
0.00355999
0.00338664
0.0032285
0.00308371
0.00295068
0.00282806
0.00271471
0.00260964
0.002512
0.00242103
0.00233609
0.00225662
0.00218212
0.00211213
0.00204628
0.00198422
0.00192563
0.00187023
0.00181779
0.00176806
0.00172086
0.001676
0.00163331
0.00159264
0.00155386
0.00151683
0.00148145
0.0014476
0.0014152
0.00138415
0.00135437
0.00132579
0.00129833
0.00127193
0.00124654
0.00122209
0.00119854
0.00117583
0.00115393
0.00113279
0.00111238
0.00109266
0.00107359
0.00105514
0.00103729
0.00102001
0.00100327
0.000987038
0.000971303
0.00095604
0.000941227
0.000926846
0.000912878
0.000899306
0.000886114
0.000873286
0.000860808
0.000848665
0.000836846
0.000825336
0.000814125
0.0008032
0.000792553
0.000782171
0.000772046
0.000762168
0.000752529
0.00074312
0.000733933
0.00072496
0.000716194
0.000707629
0.000699257
0.000691073
0.000683069
0.000675241
0.000667582
0.000660088
0.000652752
0.000645596
0.00355999
0.00338664
0.0032285
0.00308371
0.00295068
0.00282806
0.00271471
0.00260964
0.002512
0.00242103
0.00233609
0.00225662
0.00218212
0.00211213
0.00204628
0.00198422
0.00192562
0.00187023
0.00181778
0.00176806
0.00172086
0.001676
0.00163331
0.00159264
0.00155385
0.00151683
0.00148145
0.0014476
0.0014152
0.00138415
0.00135437
0.00132579
0.00129833
0.00127193
0.00124654
0.00122209
0.00119854
0.00117583
0.00115393
0.0011328
0.00111238
0.00109266
0.00107359
0.00105515
0.00103729
0.00102001
0.00100327
0.000987039
0.000971304
0.000956041
0.000941228
0.000926847
0.000912879
0.000899307
0.000886115
0.000873287
0.000860809
0.000848666
0.000836846
0.000825337
0.000814125
0.000803201
0.000792553
0.000782172
0.000772047
0.000762169
0.000752529
0.00074312
0.000733933
0.000724961
0.000716195
0.00070763
0.000699258
0.000691073
0.00068307
0.000675241
0.000667583
0.000660088
0.000652753
0.000645596
0.00355999
0.00338664
0.0032285
0.00308371
0.00295068
0.00282806
0.00271471
0.00260964
0.002512
0.00242103
0.00233609
0.00225662
0.00218211
0.00211213
0.00204628
0.00198421
0.00192562
0.00187023
0.00181778
0.00176806
0.00172086
0.00167599
0.0016333
0.00159264
0.00155385
0.00151683
0.00148144
0.0014476
0.0014152
0.00138415
0.00135437
0.00132579
0.00129833
0.00127194
0.00124654
0.00122209
0.00119854
0.00117584
0.00115394
0.0011328
0.00111239
0.00109266
0.00107359
0.00105515
0.0010373
0.00102001
0.00100327
0.00098704
0.000971305
0.000956042
0.000941229
0.000926848
0.00091288
0.000899308
0.000886116
0.000873288
0.000860809
0.000848667
0.000836847
0.000825337
0.000814126
0.000803202
0.000792554
0.000782172
0.000772047
0.000762169
0.00075253
0.000743121
0.000733934
0.000724961
0.000716196
0.00070763
0.000699259
0.000691074
0.00068307
0.000675242
0.000667583
0.000660089
0.000652753
0.000645597
0.00355999
0.00338664
0.0032285
0.00308371
0.00295068
0.00282806
0.00271471
0.00260964
0.00251199
0.00242103
0.00233609
0.00225662
0.00218211
0.00211213
0.00204628
0.00198421
0.00192562
0.00187022
0.00181778
0.00176805
0.00172085
0.00167599
0.0016333
0.00159263
0.00155385
0.00151682
0.00148144
0.0014476
0.0014152
0.00138415
0.00135437
0.00132579
0.00129833
0.00127194
0.00124654
0.0012221
0.00119854
0.00117584
0.00115394
0.0011328
0.00111239
0.00109266
0.00107359
0.00105515
0.0010373
0.00102001
0.00100327
0.000987041
0.000971306
0.000956043
0.00094123
0.000926849
0.000912881
0.000899309
0.000886117
0.000873289
0.00086081
0.000848668
0.000836848
0.000825338
0.000814127
0.000803203
0.000792555
0.000782173
0.000772048
0.00076217
0.000752531
0.000743122
0.000733934
0.000724962
0.000716196
0.000707631
0.000699259
0.000691075
0.000683071
0.000675243
0.000667584
0.000660089
0.000652754
0.000645598
0.00355999
0.00338664
0.0032285
0.00308371
0.00295068
0.00282806
0.00271471
0.00260964
0.00251199
0.00242103
0.00233609
0.00225662
0.00218211
0.00211213
0.00204628
0.00198421
0.00192562
0.00187022
0.00181777
0.00176805
0.00172085
0.00167599
0.0016333
0.00159263
0.00155385
0.00151682
0.00148144
0.0014476
0.0014152
0.00138415
0.00135438
0.00132579
0.00129834
0.00127194
0.00124655
0.0012221
0.00119855
0.00117584
0.00115394
0.0011328
0.00111239
0.00109266
0.0010736
0.00105515
0.0010373
0.00102001
0.00100327
0.000987042
0.000971307
0.000956044
0.000941231
0.00092685
0.000912882
0.00089931
0.000886117
0.000873289
0.000860811
0.000848668
0.000836849
0.000825339
0.000814128
0.000803203
0.000792555
0.000782174
0.000772049
0.000762171
0.000752532
0.000743122
0.000733935
0.000724962
0.000716197
0.000707632
0.00069926
0.000691075
0.000683072
0.000675243
0.000667584
0.00066009
0.000652755
0.000645598
0.00355999
0.00338664
0.0032285
0.00308371
0.00295068
0.00282806
0.00271471
0.00260964
0.00251199
0.00242102
0.00233609
0.00225662
0.00218211
0.00211212
0.00204627
0.00198421
0.00192561
0.00187022
0.00181777
0.00176805
0.00172085
0.00167598
0.00163329
0.00159262
0.00155384
0.00151682
0.00148144
0.0014476
0.0014152
0.00138415
0.00135438
0.00132579
0.00129834
0.00127194
0.00124655
0.0012221
0.00119855
0.00117584
0.00115394
0.0011328
0.00111239
0.00109267
0.0010736
0.00105515
0.0010373
0.00102002
0.00100327
0.000987044
0.000971309
0.000956045
0.000941232
0.000926851
0.000912883
0.000899311
0.000886118
0.00087329
0.000860812
0.000848669
0.000836849
0.00082534
0.000814128
0.000803204
0.000792556
0.000782175
0.000772049
0.000762172
0.000752532
0.000743123
0.000733936
0.000724963
0.000716198
0.000707632
0.000699261
0.000691076
0.000683072
0.000675244
0.000667585
0.000660091
0.000652755
0.000645599
0.00355999
0.00338664
0.0032285
0.00308371
0.00295068
0.00282806
0.00271471
0.00260964
0.00251199
0.00242102
0.00233609
0.00225662
0.00218211
0.00211212
0.00204627
0.0019842
0.00192561
0.00187021
0.00181777
0.00176804
0.00172084
0.00167598
0.00163329
0.00159262
0.00155384
0.00151682
0.00148144
0.0014476
0.0014152
0.00138415
0.00135438
0.0013258
0.00129834
0.00127195
0.00124655
0.0012221
0.00119855
0.00117585
0.00115394
0.00113281
0.00111239
0.00109267
0.0010736
0.00105515
0.0010373
0.00102002
0.00100327
0.000987045
0.00097131
0.000956046
0.000941233
0.000926852
0.000912883
0.000899311
0.000886119
0.000873291
0.000860813
0.00084867
0.00083685
0.00082534
0.000814129
0.000803205
0.000792557
0.000782175
0.00077205
0.000762172
0.000752533
0.000743124
0.000733937
0.000724964
0.000716198
0.000707633
0.000699261
0.000691077
0.000683073
0.000675245
0.000667586
0.000660091
0.000652756
0.0006456
0.00355999
0.00338664
0.0032285
0.00308371
0.00295068
0.00282806
0.00271471
0.00260964
0.00251199
0.00242102
0.00233609
0.00225661
0.00218211
0.00211212
0.00204627
0.0019842
0.00192561
0.00187021
0.00181776
0.00176804
0.00172084
0.00167597
0.00163328
0.00159262
0.00155384
0.00151681
0.00148143
0.0014476
0.0014152
0.00138415
0.00135438
0.0013258
0.00129834
0.00127195
0.00124655
0.00122211
0.00119855
0.00117585
0.00115395
0.00113281
0.00111239
0.00109267
0.0010736
0.00105515
0.0010373
0.00102002
0.00100327
0.000987046
0.000971311
0.000956047
0.000941234
0.000926852
0.000912884
0.000899312
0.00088612
0.000873292
0.000860813
0.000848671
0.000836851
0.000825341
0.00081413
0.000803206
0.000792558
0.000782176
0.000772051
0.000762173
0.000752534
0.000743124
0.000733937
0.000724965
0.000716199
0.000707634
0.000699262
0.000691077
0.000683074
0.000675245
0.000667586
0.000660092
0.000652756
0.0006456
0.00355999
0.00338664
0.0032285
0.00308371
0.00295068
0.00282806
0.00271471
0.00260964
0.00251199
0.00242102
0.00233609
0.00225661
0.0021821
0.00211212
0.00204627
0.0019842
0.00192561
0.00187021
0.00181776
0.00176804
0.00172083
0.00167597
0.00163328
0.00159261
0.00155383
0.00151681
0.00148143
0.00144759
0.0014152
0.00138415
0.00135438
0.0013258
0.00129834
0.00127195
0.00124656
0.00122211
0.00119855
0.00117585
0.00115395
0.00113281
0.0011124
0.00109267
0.0010736
0.00105516
0.0010373
0.00102002
0.00100327
0.000987047
0.000971312
0.000956048
0.000941235
0.000926853
0.000912885
0.000899313
0.000886121
0.000873293
0.000860814
0.000848671
0.000836852
0.000825342
0.00081413
0.000803206
0.000792558
0.000782177
0.000772051
0.000762174
0.000752534
0.000743125
0.000733938
0.000724965
0.0007162
0.000707634
0.000699262
0.000691078
0.000683074
0.000675246
0.000667587
0.000660092
0.000652757
0.000645601
0.00355999
0.00338664
0.0032285
0.00308371
0.00295068
0.00282806
0.00271471
0.00260964
0.00251199
0.00242102
0.00233608
0.00225661
0.0021821
0.00211212
0.00204627
0.0019842
0.0019256
0.00187021
0.00181776
0.00176803
0.00172083
0.00167597
0.00163328
0.00159261
0.00155383
0.00151681
0.00148143
0.00144759
0.0014152
0.00138415
0.00135438
0.0013258
0.00129835
0.00127195
0.00124656
0.00122211
0.00119856
0.00117585
0.00115395
0.00113281
0.0011124
0.00109267
0.0010736
0.00105516
0.00103731
0.00102002
0.00100328
0.000987048
0.000971312
0.000956048
0.000941235
0.000926854
0.000912886
0.000899314
0.000886121
0.000873293
0.000860815
0.000848672
0.000836852
0.000825342
0.000814131
0.000803207
0.000792559
0.000782177
0.000772052
0.000762174
0.000752535
0.000743125
0.000733938
0.000724966
0.0007162
0.000707635
0.000699263
0.000691078
0.000683075
0.000675246
0.000667587
0.000660093
0.000652758
0.000645601
0.00355999
0.00338664
0.0032285
0.00308371
0.00295068
0.00282806
0.00271471
0.00260964
0.00251199
0.00242102
0.00233608
0.00225661
0.0021821
0.00211212
0.00204626
0.0019842
0.0019256
0.0018702
0.00181776
0.00176803
0.00172083
0.00167597
0.00163328
0.00159261
0.00155383
0.00151681
0.00148143
0.00144759
0.0014152
0.00138415
0.00135438
0.0013258
0.00129835
0.00127195
0.00124656
0.00122211
0.00119856
0.00117585
0.00115395
0.00113281
0.0011124
0.00109267
0.0010736
0.00105516
0.00103731
0.00102002
0.00100328
0.000987048
0.000971313
0.000956049
0.000941236
0.000926855
0.000912886
0.000899314
0.000886122
0.000873294
0.000860815
0.000848673
0.000836853
0.000825343
0.000814131
0.000803207
0.000792559
0.000782178
0.000772052
0.000762175
0.000752535
0.000743126
0.000733939
0.000724966
0.000716201
0.000707635
0.000699263
0.000691079
0.000683075
0.000675247
0.000667588
0.000660093
0.000652758
0.000645602
0.00355999
0.00338664
0.0032285
0.00308371
0.00295068
0.00282806
0.00271471
0.00260964
0.00251199
0.00242102
0.00233608
0.00225661
0.0021821
0.00211212
0.00204626
0.00198419
0.0019256
0.0018702
0.00181775
0.00176803
0.00172083
0.00167596
0.00163327
0.00159261
0.00155383
0.0015168
0.00148143
0.00144759
0.0014152
0.00138415
0.00135438
0.0013258
0.00129835
0.00127195
0.00124656
0.00122211
0.00119856
0.00117585
0.00115395
0.00113281
0.0011124
0.00109267
0.0010736
0.00105516
0.00103731
0.00102002
0.00100328
0.000987049
0.000971313
0.000956049
0.000941236
0.000926855
0.000912887
0.000899315
0.000886122
0.000873294
0.000860816
0.000848673
0.000836853
0.000825343
0.000814132
0.000803208
0.00079256
0.000782178
0.000772053
0.000762175
0.000752536
0.000743126
0.000733939
0.000724966
0.000716201
0.000707636
0.000699264
0.000691079
0.000683075
0.000675247
0.000667588
0.000660094
0.000652758
0.000645602
0.00355999
0.00338664
0.0032285
0.00308371
0.00295068
0.00282806
0.00271471
0.00260964
0.00251199
0.00242102
0.00233608
0.00225661
0.0021821
0.00211212
0.00204626
0.00198419
0.0019256
0.0018702
0.00181775
0.00176803
0.00172082
0.00167596
0.00163327
0.00159261
0.00155382
0.0015168
0.00148143
0.00144759
0.0014152
0.00138415
0.00135438
0.0013258
0.00129835
0.00127196
0.00124656
0.00122211
0.00119856
0.00117586
0.00115395
0.00113281
0.0011124
0.00109268
0.00107361
0.00105516
0.00103731
0.00102002
0.00100328
0.000987049
0.000971314
0.00095605
0.000941237
0.000926855
0.000912887
0.000899315
0.000886122
0.000873294
0.000860816
0.000848673
0.000836853
0.000825343
0.000814132
0.000803208
0.00079256
0.000782178
0.000772053
0.000762175
0.000752536
0.000743126
0.000733939
0.000724967
0.000716201
0.000707636
0.000699264
0.000691079
0.000683076
0.000675247
0.000667588
0.000660094
0.000652758
0.000645602
0.00355999
0.00338664
0.0032285
0.00308371
0.00295068
0.00282806
0.00271471
0.00260964
0.00251199
0.00242102
0.00233608
0.00225661
0.0021821
0.00211211
0.00204626
0.00198419
0.0019256
0.0018702
0.00181775
0.00176803
0.00172082
0.00167596
0.00163327
0.0015926
0.00155382
0.0015168
0.00148143
0.00144759
0.0014152
0.00138415
0.00135438
0.0013258
0.00129835
0.00127196
0.00124656
0.00122211
0.00119856
0.00117586
0.00115395
0.00113281
0.0011124
0.00109268
0.00107361
0.00105516
0.00103731
0.00102002
0.00100328
0.000987049
0.000971314
0.00095605
0.000941237
0.000926855
0.000912887
0.000899315
0.000886122
0.000873294
0.000860816
0.000848673
0.000836853
0.000825343
0.000814132
0.000803208
0.00079256
0.000782178
0.000772053
0.000762175
0.000752536
0.000743126
0.000733939
0.000724967
0.000716201
0.000707636
0.000699264
0.000691079
0.000683076
0.000675247
0.000667588
0.000660094
0.000652759
0.000645602
0.00355999
0.00338664
0.0032285
0.00308371
0.00295068
0.00282806
0.00271471
0.00260964
0.00251199
0.00242102
0.00233608
0.00225661
0.0021821
0.00211211
0.00204626
0.00198419
0.0019256
0.0018702
0.00181775
0.00176803
0.00172082
0.00167596
0.00163327
0.0015926
0.00155382
0.0015168
0.00148143
0.00144759
0.0014152
0.00138415
0.00135438
0.0013258
0.00129835
0.00127196
0.00124656
0.00122211
0.00119856
0.00117586
0.00115395
0.00113281
0.0011124
0.00109268
0.00107361
0.00105516
0.00103731
0.00102002
0.00100328
0.000987049
0.000971313
0.00095605
0.000941236
0.000926855
0.000912887
0.000899315
0.000886122
0.000873294
0.000860816
0.000848673
0.000836853
0.000825343
0.000814132
0.000803208
0.00079256
0.000782178
0.000772053
0.000762175
0.000752536
0.000743126
0.000733939
0.000724967
0.000716201
0.000707636
0.000699264
0.000691079
0.000683076
0.000675247
0.000667588
0.000660094
0.000652759
0.000645602
0.00355999
0.00338664
0.0032285
0.00308371
0.00295068
0.00282806
0.00271471
0.00260964
0.00251199
0.00242102
0.00233608
0.00225661
0.0021821
0.00211212
0.00204626
0.00198419
0.0019256
0.0018702
0.00181775
0.00176803
0.00172082
0.00167596
0.00163327
0.0015926
0.00155382
0.0015168
0.00148143
0.00144759
0.0014152
0.00138415
0.00135438
0.0013258
0.00129835
0.00127195
0.00124656
0.00122211
0.00119856
0.00117585
0.00115395
0.00113281
0.0011124
0.00109267
0.0010736
0.00105516
0.00103731
0.00102002
0.00100328
0.000987048
0.000971313
0.000956049
0.000941236
0.000926854
0.000912886
0.000899314
0.000886122
0.000873294
0.000860815
0.000848673
0.000836853
0.000825343
0.000814132
0.000803207
0.000792559
0.000782178
0.000772053
0.000762175
0.000752535
0.000743126
0.000733939
0.000724966
0.000716201
0.000707635
0.000699264
0.000691079
0.000683075
0.000675247
0.000667588
0.000660094
0.000652758
0.000645602
0.00355999
0.00338664
0.0032285
0.00308371
0.00295068
0.00282806
0.00271471
0.00260964
0.00251199
0.00242102
0.00233608
0.00225661
0.0021821
0.00211212
0.00204626
0.00198419
0.0019256
0.0018702
0.00181775
0.00176803
0.00172083
0.00167596
0.00163327
0.00159261
0.00155382
0.0015168
0.00148143
0.00144759
0.0014152
0.00138415
0.00135438
0.0013258
0.00129835
0.00127195
0.00124656
0.00122211
0.00119856
0.00117585
0.00115395
0.00113281
0.0011124
0.00109267
0.0010736
0.00105516
0.00103731
0.00102002
0.00100328
0.000987048
0.000971312
0.000956048
0.000941235
0.000926854
0.000912886
0.000899314
0.000886121
0.000873293
0.000860815
0.000848672
0.000836852
0.000825342
0.000814131
0.000803207
0.000792559
0.000782177
0.000772052
0.000762174
0.000752535
0.000743126
0.000733939
0.000724966
0.0007162
0.000707635
0.000699263
0.000691079
0.000683075
0.000675247
0.000667588
0.000660093
0.000652758
0.000645602
0.00355999
0.00338664
0.0032285
0.00308371
0.00295068
0.00282806
0.00271471
0.00260964
0.00251199
0.00242102
0.00233608
0.00225661
0.0021821
0.00211212
0.00204626
0.00198419
0.0019256
0.0018702
0.00181775
0.00176803
0.00172083
0.00167596
0.00163327
0.00159261
0.00155383
0.0015168
0.00148143
0.00144759
0.0014152
0.00138415
0.00135438
0.0013258
0.00129835
0.00127195
0.00124656
0.00122211
0.00119856
0.00117585
0.00115395
0.00113281
0.0011124
0.00109267
0.0010736
0.00105516
0.0010373
0.00102002
0.00100327
0.000987047
0.000971311
0.000956048
0.000941235
0.000926853
0.000912885
0.000899313
0.00088612
0.000873292
0.000860814
0.000848671
0.000836851
0.000825342
0.00081413
0.000803206
0.000792558
0.000782177
0.000772051
0.000762174
0.000752534
0.000743125
0.000733938
0.000724965
0.0007162
0.000707635
0.000699263
0.000691078
0.000683075
0.000675246
0.000667587
0.000660093
0.000652758
0.000645601
0.00355999
0.00338664
0.0032285
0.00308371
0.00295068
0.00282806
0.00271471
0.00260964
0.00251199
0.00242102
0.00233608
0.00225661
0.0021821
0.00211212
0.00204626
0.0019842
0.0019256
0.00187021
0.00181776
0.00176803
0.00172083
0.00167597
0.00163328
0.00159261
0.00155383
0.00151681
0.00148143
0.00144759
0.0014152
0.00138415
0.00135438
0.0013258
0.00129834
0.00127195
0.00124656
0.00122211
0.00119855
0.00117585
0.00115395
0.00113281
0.0011124
0.00109267
0.0010736
0.00105515
0.0010373
0.00102002
0.00100327
0.000987046
0.00097131
0.000956046
0.000941234
0.000926852
0.000912884
0.000899312
0.00088612
0.000873291
0.000860813
0.000848671
0.000836851
0.000825341
0.00081413
0.000803205
0.000792558
0.000782176
0.000772051
0.000762173
0.000752534
0.000743124
0.000733937
0.000724965
0.000716199
0.000707634
0.000699262
0.000691078
0.000683074
0.000675246
0.000667587
0.000660092
0.000652757
0.000645601
0.00355999
0.00338664
0.0032285
0.00308371
0.00295068
0.00282806
0.00271471
0.00260964
0.00251199
0.00242102
0.00233609
0.00225661
0.0021821
0.00211212
0.00204627
0.0019842
0.0019256
0.00187021
0.00181776
0.00176804
0.00172083
0.00167597
0.00163328
0.00159261
0.00155383
0.00151681
0.00148143
0.00144759
0.0014152
0.00138415
0.00135438
0.0013258
0.00129834
0.00127195
0.00124655
0.0012221
0.00119855
0.00117585
0.00115395
0.00113281
0.00111239
0.00109267
0.0010736
0.00105515
0.0010373
0.00102002
0.00100327
0.000987044
0.000971309
0.000956045
0.000941232
0.000926851
0.000912883
0.000899311
0.000886119
0.000873291
0.000860812
0.00084867
0.00083685
0.00082534
0.000814129
0.000803205
0.000792557
0.000782175
0.00077205
0.000762172
0.000752533
0.000743124
0.000733937
0.000724964
0.000716199
0.000707633
0.000699262
0.000691077
0.000683073
0.000675245
0.000667586
0.000660092
0.000652756
0.0006456
0.00355999
0.00338664
0.0032285
0.00308371
0.00295068
0.00282806
0.00271471
0.00260964
0.00251199
0.00242102
0.00233609
0.00225661
0.00218211
0.00211212
0.00204627
0.0019842
0.00192561
0.00187021
0.00181776
0.00176804
0.00172084
0.00167597
0.00163328
0.00159262
0.00155383
0.00151681
0.00148143
0.00144759
0.0014152
0.00138415
0.00135438
0.0013258
0.00129834
0.00127194
0.00124655
0.0012221
0.00119855
0.00117584
0.00115394
0.00113281
0.00111239
0.00109267
0.0010736
0.00105515
0.0010373
0.00102002
0.00100327
0.000987043
0.000971308
0.000956044
0.000941231
0.00092685
0.000912882
0.00089931
0.000886118
0.00087329
0.000860811
0.000848669
0.000836849
0.000825339
0.000814128
0.000803204
0.000792556
0.000782174
0.000772049
0.000762171
0.000752532
0.000743123
0.000733936
0.000724963
0.000716198
0.000707633
0.000699261
0.000691076
0.000683073
0.000675244
0.000667586
0.000660091
0.000652756
0.0006456
0.00355999
0.00338664
0.0032285
0.00308371
0.00295068
0.00282806
0.00271471
0.00260964
0.00251199
0.00242102
0.00233609
0.00225661
0.00218211
0.00211212
0.00204627
0.0019842
0.00192561
0.00187021
0.00181777
0.00176804
0.00172084
0.00167598
0.00163329
0.00159262
0.00155384
0.00151681
0.00148143
0.00144759
0.0014152
0.00138415
0.00135437
0.00132579
0.00129834
0.00127194
0.00124655
0.0012221
0.00119855
0.00117584
0.00115394
0.0011328
0.00111239
0.00109266
0.0010736
0.00105515
0.0010373
0.00102001
0.00100327
0.000987042
0.000971307
0.000956043
0.00094123
0.000926849
0.000912881
0.000899309
0.000886116
0.000873288
0.00086081
0.000848668
0.000836848
0.000825338
0.000814127
0.000803203
0.000792555
0.000782173
0.000772048
0.000762171
0.000752531
0.000743122
0.000733935
0.000724962
0.000716197
0.000707632
0.00069926
0.000691075
0.000683072
0.000675244
0.000667585
0.00066009
0.000652755
0.000645599
0.00355999
0.00338664
0.0032285
0.00308371
0.00295068
0.00282806
0.00271471
0.00260964
0.00251199
0.00242102
0.00233609
0.00225662
0.00218211
0.00211212
0.00204627
0.0019842
0.00192561
0.00187022
0.00181777
0.00176805
0.00172084
0.00167598
0.00163329
0.00159262
0.00155384
0.00151682
0.00148144
0.00144759
0.0014152
0.00138415
0.00135437
0.00132579
0.00129833
0.00127194
0.00124654
0.0012221
0.00119854
0.00117584
0.00115394
0.0011328
0.00111239
0.00109266
0.00107359
0.00105515
0.0010373
0.00102001
0.00100327
0.00098704
0.000971305
0.000956042
0.000941229
0.000926848
0.00091288
0.000899308
0.000886115
0.000873287
0.000860809
0.000848667
0.000836847
0.000825337
0.000814126
0.000803202
0.000792554
0.000782172
0.000772047
0.00076217
0.00075253
0.000743121
0.000733934
0.000724962
0.000716196
0.000707631
0.000699259
0.000691075
0.000683071
0.000675243
0.000667584
0.00066009
0.000652754
0.000645598
0.00355999
0.00338664
0.0032285
0.00308371
0.00295068
0.00282806
0.00271471
0.00260964
0.00251199
0.00242103
0.00233609
0.00225662
0.00218211
0.00211213
0.00204627
0.00198421
0.00192561
0.00187022
0.00181777
0.00176805
0.00172085
0.00167598
0.00163329
0.00159263
0.00155384
0.00151682
0.00148144
0.0014476
0.0014152
0.00138415
0.00135437
0.00132579
0.00129833
0.00127194
0.00124654
0.00122209
0.00119854
0.00117584
0.00115394
0.0011328
0.00111238
0.00109266
0.00107359
0.00105515
0.0010373
0.00102001
0.00100327
0.000987039
0.000971304
0.00095604
0.000941228
0.000926846
0.000912878
0.000899306
0.000886114
0.000873286
0.000860808
0.000848666
0.000836846
0.000825336
0.000814125
0.000803201
0.000792553
0.000782172
0.000772047
0.000762169
0.00075253
0.00074312
0.000733933
0.000724961
0.000716195
0.00070763
0.000699259
0.000691074
0.00068307
0.000675242
0.000667583
0.000660089
0.000652754
0.000645598
0.00355999
0.00338664
0.0032285
0.00308371
0.00295068
0.00282806
0.00271471
0.00260964
0.00251199
0.00242103
0.00233609
0.00225662
0.00218211
0.00211213
0.00204628
0.00198421
0.00192562
0.00187022
0.00181778
0.00176805
0.00172085
0.00167599
0.0016333
0.00159263
0.00155385
0.00151682
0.00148144
0.0014476
0.0014152
0.00138415
0.00135437
0.00132579
0.00129833
0.00127193
0.00124654
0.00122209
0.00119854
0.00117583
0.00115393
0.0011328
0.00111238
0.00109266
0.00107359
0.00105514
0.00103729
0.00102001
0.00100327
0.000987037
0.000971303
0.000956039
0.000941226
0.000926845
0.000912877
0.000899305
0.000886113
0.000873285
0.000860807
0.000848665
0.000836845
0.000825335
0.000814124
0.0008032
0.000792552
0.000782171
0.000772046
0.000762168
0.000752529
0.00074312
0.000733933
0.00072496
0.000716195
0.000707629
0.000699258
0.000691073
0.00068307
0.000675241
0.000667583
0.000660088
0.000652753
0.000645597
0.00355999
0.00338664
0.0032285
0.00308371
0.00295068
0.00282806
0.00271471
0.00260964
0.00251199
0.00242103
0.00233609
0.00225662
0.00218211
0.00211213
0.00204628
0.00198421
0.00192562
0.00187023
0.00181778
0.00176806
0.00172085
0.00167599
0.0016333
0.00159263
0.00155385
0.00151682
0.00148144
0.0014476
0.0014152
0.00138415
0.00135437
0.00132579
0.00129833
0.00127193
0.00124654
0.00122209
0.00119854
0.00117583
0.00115393
0.00113279
0.00111238
0.00109266
0.00107359
0.00105514
0.00103729
0.00102001
0.00100326
0.000987036
0.000971301
0.000956038
0.000941225
0.000926844
0.000912876
0.000899304
0.000886112
0.000873284
0.000860806
0.000848664
0.000836844
0.000825334
0.000814123
0.000803199
0.000792551
0.00078217
0.000772045
0.000762167
0.000752528
0.000743119
0.000733932
0.000724959
0.000716194
0.000707629
0.000699257
0.000691073
0.000683069
0.000675241
0.000667582
0.000660088
0.000652752
0.000645596
0.00355999
0.00338664
0.0032285
0.00308371
0.00295068
0.00282806
0.00271471
0.00260964
0.002512
0.00242103
0.00233609
0.00225662
0.00218211
0.00211213
0.00204628
0.00198421
0.00192562
0.00187023
0.00181778
0.00176806