/*--------------------------------*- C++ -*----------------------------------*\
| =========                 |                                                 |
| \\      /  F ield         | OpenFOAM: The Open Source CFD Toolbox           |
|  \\    /   O peration     | Version:  2512                                  |
|   \\  /    A nd           | Website:  www.openfoam.com                      |
|    \\/     M anipulation  |                                                 |
\*---------------------------------------------------------------------------*/
FoamFile
{
    version     2.0;
    format      ascii;
    arch        "LSB;label=32;scalar=64";
    class       volScalarField;
    location    "100";
    object      p;
}
// * * * * * * * * * * * * * * * * * * * * * * * * * * * * * * * * * * * * * //

dimensions      [0 2 -2 0 0 0 0];

internalField   nonuniform List<scalar> 
335663
(
0.000737926
0.000737006
0.000734671
0.000730926
0.000725711
0.00071881
0.000709928
0.000698715
0.00068476
0.000667581
0.000646622
0.000621254
0.000590785
0.000554477
0.000511571
0.000461329
0.000403089
0.00033634
0.000260823
0.000176641
8.43833e-05
-1.47569e-05
-0.000118897
-0.000225432
-0.000331074
-0.000432008
-0.000524148
-0.000603505
-0.000666622
-0.000710991
-0.000735376
-0.000739959
-0.000726276
-0.000696962
-0.000655355
-0.000605063
-0.000549574
-0.000491972
-0.000434779
-0.000379903
-0.000328664
-0.000281872
-0.000239916
-0.000202869
-0.000170573
-0.000142727
-0.000118944
-9.87968e-05
-8.18534e-05
-6.76952e-05
-5.59306e-05
-4.62029e-05
-3.81944e-05
-3.16272e-05
-2.6262e-05
-2.18939e-05
-1.83489e-05
-1.54787e-05
-1.3158e-05
-1.12811e-05
-9.76024e-06
-8.52338e-06
-7.51226e-06
-6.67928e-06
-5.98575e-06
-5.39888e-06
-4.89099e-06
-4.43806e-06
-4.02024e-06
-3.62166e-06
-3.23134e-06
-2.84298e-06
-2.45538e-06
-2.07143e-06
-1.69788e-06
-1.34404e-06
-1.02102e-06
-7.39351e-07
-5.01934e-07
-3.57479e-07
0.000738202
0.000737289
0.000734976
0.000731267
0.000726099
0.00071926
0.000710455
0.000699334
0.000685488
0.000668435
0.000647618
0.000622407
0.000592105
0.000555967
0.000513227
0.000463131
0.000405
0.000338302
0.000262753
0.00017843
8.58989e-05
-1.36651e-05
-0.000118386
-0.000225647
-0.000332126
-0.000433949
-0.00052695
-0.000607051
-0.000670705
-0.000715338
-0.000739681
-0.000743931
-0.000729681
-0.000699649
-0.000657265
-0.00060622
-0.000550061
-0.000491908
-0.000434293
-0.000379121
-0.000327699
-0.000280814
-0.000238837
-0.000201819
-0.000169589
-0.000141829
-0.000118141
-9.8092e-05
-8.12435e-05
-6.71735e-05
-5.54886e-05
-4.58311e-05
-3.78833e-05
-3.13681e-05
-2.6047e-05
-2.17163e-05
-1.82027e-05
-1.53587e-05
-1.30594e-05
-1.11995e-05
-9.69175e-06
-8.46468e-06
-7.46059e-06
-6.63269e-06
-5.94285e-06
-5.35901e-06
-4.85386e-06
-4.40383e-06
-3.98924e-06
-3.59441e-06
-3.20831e-06
-2.82468e-06
-2.44205e-06
-2.06318e-06
-1.69439e-06
-1.34465e-06
-1.02454e-06
-7.44138e-07
-5.06098e-07
-3.5687e-07
0.000738745
0.00073785
0.00073558
0.00073194
0.000726867
0.00072015
0.000711495
0.000700557
0.000686927
0.000670123
0.000649588
0.000624686
0.000594715
0.000558918
0.000516507
0.000466704
0.000408793
0.000342201
0.000266593
0.000181997
8.89297e-05
-1.14714e-05
-0.000117343
-0.000226046
-0.000334192
-0.000437789
-0.000532512
-0.0006141
-0.000678829
-0.000723989
-0.000748249
-0.000751834
-0.00073645
-0.000704983
-0.00066105
-0.000608504
-0.000551014
-0.000491766
-0.000433317
-0.000377561
-0.000325776
-0.000278711
-0.000236694
-0.000199738
-0.000167637
-0.000140047
-0.000116549
-9.66939e-05
-8.00333e-05
-6.61384e-05
-5.46116e-05
-4.50936e-05
-3.72667e-05
-3.0855e-05
-2.56218e-05
-2.13656e-05
-1.79147e-05
-1.5123e-05
-1.28664e-05
-1.10406e-05
-9.55918e-06
-8.35178e-06
-7.36204e-06
-6.54456e-06
-5.86257e-06
-5.28512e-06
-4.78582e-06
-4.34176e-06
-3.93367e-06
-3.54611e-06
-3.16813e-06
-2.79335e-06
-2.42008e-06
-2.05065e-06
-1.69081e-06
-1.34882e-06
-1.03435e-06
-7.56644e-07
-5.17662e-07
-3.62593e-07
0.000739544
0.000738674
0.00073647
0.000732932
0.000727998
0.00072146
0.000713028
0.000702359
0.000689047
0.000672611
0.000652491
0.000628049
0.000598569
0.000563278
0.000521358
0.000471993
0.000414417
0.000347991
0.00027231
0.000187322
9.34699e-05
-8.16435e-06
-0.00011574
-0.000226587
-0.000337218
-0.000443467
-0.00054077
-0.00062459
-0.000690933
-0.000736882
-0.000761013
-0.000763593
-0.000746501
-0.000712881
-0.000666628
-0.000611844
-0.000552374
-0.000491505
-0.000431826
-0.000375215
-0.000322903
-0.000275579
-0.000233511
-0.000196652
-0.000164747
-0.000137411
-0.000114195
-9.46273e-05
-7.82452e-05
-6.46095e-05
-5.33168e-05
-4.40053e-05
-3.63573e-05
-3.00987e-05
-2.49957e-05
-2.08496e-05
-1.74914e-05
-1.47768e-05
-1.25832e-05
-1.08072e-05
-9.36417e-06
-8.18532e-06
-7.21632e-06
-6.41385e-06
-5.74307e-06
-5.17469e-06
-4.68356e-06
-4.24767e-06
-3.84834e-06
-3.47044e-06
-3.10314e-06
-2.73997e-06
-2.37893e-06
-2.02185e-06
-1.67376e-06
-1.34193e-06
-1.03493e-06
-7.60896e-07
-5.21282e-07
-3.61443e-07
0.00074058
0.000739744
0.000737623
0.000734218
0.000729465
0.00072316
0.000715017
0.000704699
0.000691801
0.000675844
0.000656268
0.000632426
0.000603591
0.000568963
0.000527694
0.000478913
0.000421788
0.000355599
0.000279842
0.000194362
9.95031e-05
-3.73179e-06
-0.000113535
-0.0002272
-0.000341111
-0.000450875
-0.000551609
-0.000638401
-0.000706896
-0.000753895
-0.000777845
-0.000779075
-0.000759698
-0.000723207
-0.000673876
-0.000616135
-0.000554063
-0.000491074
-0.000429797
-0.000372081
-0.000319096
-0.000271451
-0.000229328
-0.000192607
-0.000160965
-0.000133966
-0.000111122
-9.19322e-05
-7.59148e-05
-6.2618e-05
-5.16313e-05
-4.25894e-05
-3.5175e-05
-2.91162e-05
-2.41832e-05
-2.01811e-05
-1.69441e-05
-1.43302e-05
-1.22188e-05
-1.05082e-05
-9.11543e-06
-7.97428e-06
-7.03301e-06
-6.25105e-06
-5.596e-06
-5.04061e-06
-4.56126e-06
-4.13695e-06
-3.74968e-06
-3.38472e-06
-3.03135e-06
-2.68304e-06
-2.33746e-06
-1.99588e-06
-1.6625e-06
-1.34352e-06
-1.04617e-06
-7.7733e-07
-5.3757e-07
-3.71277e-07
0.00074183
0.000741034
0.000739014
0.000735769
0.000731235
0.000725211
0.000717419
0.000707525
0.000695128
0.000679754
0.000660839
0.000637728
0.000609681
0.000575869
0.000535401
0.000487348
0.000430795
0.000364922
0.000289104
0.000203058
0.000107001
1.83497e-06
-0.00011068
-0.000227798
-0.000345753
-0.000459871
-0.000564871
-0.000655371
-0.000726552
-0.000774858
-0.000798572
-0.000798101
-0.00077586
-0.000735788
-0.000682636
-0.000621246
-0.000555982
-0.000490412
-0.000427201
-0.000368163
-0.000314383
-0.00026637
-0.000224203
-0.000187665
-0.000156356
-0.000129776
-0.000107388
-8.8661e-05
-7.30885e-05
-6.02045e-05
-4.95897e-05
-4.08751e-05
-3.37438e-05
-2.79271e-05
-2.31998e-05
-1.93717e-05
-1.6281e-05
-1.37887e-05
-1.17761e-05
-1.01437e-05
-8.81104e-06
-7.7148e-06
-6.8066e-06
-6.04914e-06
-5.413e-06
-4.87324e-06
-4.40793e-06
-3.9972e-06
-3.62373e-06
-3.27322e-06
-2.93513e-06
-2.60288e-06
-2.27389e-06
-1.94885e-06
-1.63115e-06
-1.32585e-06
-1.03889e-06
-7.75915e-07
-5.37059e-07
-3.67197e-07
0.000743264
0.000742514
0.000740611
0.00073755
0.000733267
0.000727567
0.000720179
0.000710773
0.000698956
0.000684255
0.000666105
0.000643846
0.000616717
0.000583861
0.000544338
0.00049715
0.000441291
0.000375821
0.000299977
0.000213318
0.00011591
8.52934e-06
-0.000107129
-0.000228285
-0.000351001
-0.000470274
-0.000580349
-0.000675277
-0.000749671
-0.000799536
-0.000822954
-0.000820428
-0.000794746
-0.000750395
-0.000692706
-0.000627012
-0.000558014
-0.000489447
-0.000424014
-0.000363472
-0.000308806
-0.000260399
-0.000218208
-0.000181907
-0.000151001
-0.000124917
-0.000103067
-8.48809e-05
-6.98266e-05
-5.7422e-05
-4.72383e-05
-3.89026e-05
-3.20985e-05
-2.65615e-05
-2.2072e-05
-1.84453e-05
-1.55242e-05
-1.31728e-05
-1.12749e-05
-9.73348e-06
-8.47101e-06
-7.42768e-06
-6.55903e-06
-5.83162e-06
-5.21927e-06
-4.6996e-06
-4.25239e-06
-3.85888e-06
-3.50243e-06
-3.16912e-06
-2.84862e-06
-2.53438e-06
-2.22358e-06
-1.91644e-06
-1.61555e-06
-1.32488e-06
-1.04911e-06
-7.92671e-07
-5.54796e-07
-3.79099e-07
0.000744849
0.00074415
0.000742375
0.000739519
0.000735515
0.000730174
0.000723232
0.00071437
0.000703198
0.000689248
0.000671954
0.000650648
0.000624551
0.000592776
0.000554329
0.000508138
0.000453093
0.000388122
0.000312302
0.000225016
0.000126149
1.63248e-05
-0.000102847
-0.000228558
-0.000356687
-0.000481862
-0.00059778
-0.000697826
-0.000775945
-0.000827613
-0.00085067
-0.000845737
-0.00081605
-0.000766748
-0.000703847
-0.00063325
-0.000560034
-0.000488116
-0.000420222
-0.000358039
-0.000302425
-0.00025362
-0.00021144
-0.000175432
-0.000144998
-0.000119486
-9.8246e-05
-8.06692e-05
-6.61968e-05
-5.43287e-05
-4.46257e-05
-3.67113e-05
-3.02702e-05
-2.5043e-05
-2.08165e-05
-1.74125e-05
-1.46786e-05
-1.24825e-05
-1.07108e-05
-9.26909e-06
-8.08321e-06
-7.0975e-06
-6.27199e-06
-5.5775e-06
-4.99145e-06
-4.49405e-06
-4.06683e-06
-3.69206e-06
-3.35369e-06
-3.03821e-06
-2.73555e-06
-2.43926e-06
-2.1464e-06
-1.85681e-06
-1.57238e-06
-1.29613e-06
-1.0316e-06
-7.82265e-07
-5.47165e-07
-3.70631e-07
0.000746548
0.000745904
0.000744267
0.00074163
0.000737925
0.00073297
0.00072651
0.000718233
0.000707758
0.000694619
0.000678253
0.000657985
0.000633017
0.000602428
0.000565172
0.000520097
0.00046598
0.000401608
0.000325882
0.000237984
0.000137596
2.5163e-05
-9.78145e-05
-0.000228515
-0.000362627
-0.000494374
-0.00061684
-0.000722651
-0.000804975
-0.000858675
-0.000881305
-0.000873625
-0.000839394
-0.000784512
-0.000715786
-0.000639758
-0.000561916
-0.00048636
-0.000415829
-0.000351914
-0.000295325
-0.00024614
-0.000204017
-0.000168363
-0.000138468
-0.000113593
-9.30282e-05
-7.61206e-05
-6.22838e-05
-5.09995e-05
-4.18183e-05
-3.43599e-05
-2.83112e-05
-2.34186e-05
-1.94765e-05
-1.63136e-05
-1.37829e-05
-1.17558e-05
-1.01214e-05
-8.78845e-06
-7.68643e-06
-6.76438e-06
-5.98728e-06
-5.33056e-06
-4.77535e-06
-4.30446e-06
-3.90098e-06
-3.54808e-06
-3.23019e-06
-2.93418e-06
-2.65028e-06
-2.37226e-06
-2.09721e-06
-1.82471e-06
-1.5561e-06
-1.29357e-06
-1.03968e-06
-7.9699e-07
-5.63799e-07
-3.83101e-07
0.000748322
0.000747734
0.000746242
0.000743833
0.000740442
0.000735891
0.000729936
0.000722273
0.000712529
0.000700246
0.00068486
0.000665691
0.000641925
0.000612606
0.000576635
0.000532776
0.000479693
0.000416019
0.000340467
0.000252004
0.000150083
3.49452e-05
-9.20439e-05
-0.000228068
-0.000368624
-0.00050751
-0.00063714
-0.000749292
-0.000836258
-0.000892198
-0.000914336
-0.000903589
-0.000864322
-0.000803301
-0.000728218
-0.000646324
-0.000563539
-0.000484143
-0.000410864
-0.000345177
-0.000287621
-0.000238094
-0.000196082
-0.000160842
-0.000131546
-0.000107365
-8.75256e-05
-7.13323e-05
-5.81702e-05
-4.7503e-05
-3.8871e-05
-3.18907e-05
-2.62519e-05
-2.17081e-05
-1.80622e-05
-1.51505e-05
-1.28314e-05
-1.09797e-05
-9.48739e-06
-8.26625e-06
-7.25009e-06
-6.39305e-06
-5.66556e-06
-5.04794e-06
-4.52506e-06
-4.0822e-06
-3.70377e-06
-3.37362e-06
-3.07654e-06
-2.79977e-06
-2.53393e-06
-2.27318e-06
-2.01483e-06
-1.75838e-06
-1.50476e-06
-1.2555e-06
-1.01235e-06
-7.77229e-07
-5.48519e-07
-3.70249e-07
0.000750128
0.000749599
0.000748253
0.000746078
0.000743006
0.000738868
0.000733428
0.000726394
0.000717401
0.000705996
0.000691621
0.000673588
0.000651069
0.000623078
0.000588459
0.000545895
0.000493934
0.00043105
0.000355762
0.000266805
0.000163387
4.55218e-05
-8.55868e-05
-0.000227148
-0.000374481
-0.000520941
-0.000658228
-0.0007772
-0.000869177
-0.000927532
-0.000949118
-0.000935026
-0.0008903
-0.000822675
-0.000740818
-0.000652739
-0.000564804
-0.000481457
-0.000405392
-0.000337943
-0.000279461
-0.000229647
-0.000187804
-0.000153037
-0.000124391
-0.000100949
-8.18725e-05
-6.64254e-05
-5.39649e-05
-4.39366e-05
-3.58712e-05
-2.93827e-05
-2.41649e-05
-1.99794e-05
-1.66384e-05
-1.39859e-05
-1.18855e-05
-1.02155e-05
-8.87017e-06
-7.76474e-06
-6.83754e-06
-6.04839e-06
-5.37351e-06
-4.79826e-06
-4.31114e-06
-3.89958e-06
-3.54898e-06
-3.2435e-06
-2.96817e-06
-2.71054e-06
-2.46177e-06
-2.21664e-06
-1.97292e-06
-1.73027e-06
-1.48945e-06
-1.25148e-06
-1.01747e-06
-7.88683e-07
-5.62881e-07
-3.82614e-07
0.000751925
0.000751453
0.000750254
0.000748311
0.000745556
0.000741829
0.000736904
0.000730497
0.000722255
0.000711732
0.000698372
0.000681487
0.000660233
0.000633593
0.000600363
0.000559144
0.000508368
0.000446354
0.000371418
0.000282059
0.000177227
5.66853e-05
-7.85445e-05
-0.000225723
-0.000380006
-0.000534309
-0.000679589
-0.000805725
-0.00090299
-0.000963893
-0.000984877
-0.000967221
-0.000916715
-0.000842152
-0.000753248
-0.000658805
-0.000565637
-0.000478327
-0.000399514
-0.000330363
-0.000271024
-0.000220989
-0.000179374
-0.000145126
-0.000117167
-9.4488e-05
-7.6193e-05
-6.15039e-05
-4.97519e-05
-4.03656e-05
-3.28666e-05
-2.68675e-05
-2.20672e-05
-1.82364e-05
-1.51971e-05
-1.28014e-05
-1.09177e-05
-9.42691e-06
-8.22585e-06
-7.23299e-06
-6.39174e-06
-5.66806e-06
-5.04435e-06
-4.51108e-06
-4.06021e-06
-3.68087e-06
-3.35898e-06
-3.07864e-06
-2.82483e-06
-2.58542e-06
-2.35223e-06
-2.12088e-06
-1.8899e-06
-1.65941e-06
-1.43021e-06
-1.20303e-06
-9.78472e-07
-7.57417e-07
-5.37893e-07
-3.63904e-07
0.00075367
0.000753254
0.000752197
0.000750479
0.000748033
0.000744706
0.000740281
0.000734485
0.000726976
0.000717315
0.00070495
0.000689193
0.000669188
0.000643892
0.000612051
0.000572192
0.000522635
0.000461546
0.000387043
0.000297386
0.000191259
6.81667e-05
-7.10753e-05
-0.000223801
-0.000385029
-0.000547243
-0.000700655
-0.000834129
-0.000936835
-0.00100036
-0.00102071
-0.000999352
-0.000942883
-0.000861216
-0.000765168
-0.000664348
-0.000566001
-0.000474826
-0.000393374
-0.000322629
-0.000262525
-0.000212344
-0.000171012
-0.000137319
-0.000110066
-8.81603e-05
-7.06475e-05
-5.67127e-05
-4.56625e-05
-3.69097e-05
-2.99672e-05
-2.44473e-05
-2.00551e-05
-1.65714e-05
-1.38286e-05
-1.16862e-05
-1.00168e-05
-8.70339e-06
-7.64457e-06
-6.76226e-06
-6.00523e-06
-5.34599e-06
-4.77343e-06
-4.28314e-06
-3.87019e-06
-3.52496e-06
-3.23331e-06
-2.97881e-06
-2.74612e-06
-2.52335e-06
-2.30313e-06
-2.0822e-06
-1.86015e-06
-1.6379e-06
-1.4166e-06
-1.19689e-06
-9.7906e-07
-7.6357e-07
-5.47905e-07
-3.7446e-07
0.000755323
0.000754961
0.000754037
0.000752532
0.000750377
0.000747427
0.000743476
0.00073826
0.000731446
0.000722605
0.00071119
0.000696512
0.000677706
0.000653707
0.000623217
0.000584693
0.000536352
0.000476213
0.000402206
0.000312358
0.000205088
7.96367e-05
-6.33967e-05
-0.000221443
-0.000389407
-0.000559373
-0.000720818
-0.000861592
-0.00096974
-0.0010359
-0.00105559
-0.00103051
-0.000968061
-0.00087933
-0.000776248
-0.000669223
-0.000565901
-0.000471065
-0.000387156
-0.000314963
-0.000254203
-0.000203947
-0.000162938
-0.000129813
-0.000103262
-8.21114e-05
-6.53555e-05
-5.21459e-05
-4.17669e-05
-3.36165e-05
-2.72004e-05
-2.21312e-05
-1.81214e-05
-1.49628e-05
-1.24981e-05
-1.0594e-05
-9.12637e-06
-7.9793e-06
-7.05286e-06
-6.27224e-06
-5.59181e-06
-4.991e-06
-4.46539e-06
-4.01563e-06
-3.63959e-06
-3.32837e-06
-3.06716e-06
-2.83854e-06
-2.62652e-06
-2.41931e-06
-2.21043e-06
-1.99792e-06
-1.78276e-06
-1.56696e-06
-1.35226e-06
-1.13949e-06
-9.28804e-07
-7.20501e-07
-5.12512e-07
-3.49194e-07
0.000756846
0.000756532
0.000755731
0.00075442
0.000752533
0.000749929
0.000746412
0.000741729
0.000735555
0.000727469
0.000716932
0.000703254
0.000685564
0.000662777
0.000633557
0.0005963
0.000549128
0.000489928
0.000416455
0.000326513
0.000218273
9.07148e-05
-5.57818e-05
-0.000218759
-0.000393039
-0.000570342
-0.000739454
-0.000887244
-0.00100065
-0.00106935
-0.00108841
-0.0010597
-0.000991472
-0.000895959
-0.000786188
-0.000673328
-0.00056539
-0.000467203
-0.000381085
-0.000307625
-0.000246328
-0.000196065
-0.000155404
-0.000122844
-9.69689e-05
-7.65356e-05
-6.04929e-05
-4.79637e-05
-3.82121e-05
-3.06227e-05
-2.46945e-05
-2.00416e-05
-1.63845e-05
-1.35265e-05
-1.13205e-05
-9.6393e-06
-8.36131e-06
-7.37063e-06
-6.56808e-06
-5.88188e-06
-5.27202e-06
-4.72498e-06
-4.24305e-06
-3.8318e-06
-3.49156e-06
-3.21367e-06
-2.98218e-06
-2.77824e-06
-2.58489e-06
-2.39039e-06
-2.18911e-06
-1.98064e-06
-1.76756e-06
-1.55324e-06
-1.34037e-06
-1.13016e-06
-9.22824e-07
-7.18509e-07
-5.14829e-07
-3.54829e-07
0.000758203
0.000757932
0.000757239
0.0007561
0.000754449
0.000752151
0.000749018
0.000744806
0.000739199
0.000731784
0.000722026
0.00070924
0.000692549
0.00067085
0.000642778
0.000606675
0.00056058
0.000502266
0.000429329
0.000339377
0.000230349
0.000100985
-4.85472e-05
-0.000215908
-0.000395865
-0.000579824
-0.000755946
-0.000910195
-0.00102846
-0.00109953
-0.00111799
-0.00108591
-0.00101234
-0.000910585
-0.00079472
-0.000676604
-0.000564556
-0.000463428
-0.000375401
-0.000300878
-0.000239161
-0.000188942
-0.000148629
-0.000116598
-9.13421e-05
-7.15572e-05
-5.61546e-05
-4.4233e-05
-3.50393e-05
-2.79461e-05
-2.24469e-05
-1.81576e-05
-1.48076e-05
-1.22113e-05
-1.02313e-05
-8.74629e-06
-7.63561e-06
-6.78271e-06
-6.08843e-06
-5.48365e-06
-4.93376e-06
-4.43211e-06
-3.98753e-06
-3.61024e-06
-3.3027e-06
-3.05608e-06
-2.85295e-06
-2.67265e-06
-2.49708e-06
-2.31431e-06
-2.11963e-06
-1.91413e-06
-1.70216e-06
-1.48863e-06
-1.27732e-06
-1.07004e-06
-8.67212e-07
-6.69073e-07
-4.73816e-07
-3.26593e-07
0.000759363
0.000759128
0.000758526
0.000757532
0.000756079
0.000754039
0.00075123
0.000747415
0.000742286
0.000735437
0.00072634
0.00071431
0.000698468
0.000677698
0.000650611
0.000615503
0.00057035
0.000512823
0.000440388
0.000350486
0.000240855
0.000110022
-4.20328e-05
-0.000213086
-0.000397873
-0.00058754
-0.000769719
-0.000929583
-0.0010521
-0.00112525
-0.00114318
-0.00110815
-0.0010299
-0.000922737
-0.000801628
-0.000679035
-0.000563528
-0.000459955
-0.000370371
-0.000295004
-0.000232984
-0.000182845
-0.000142862
-0.000111303
-8.6589e-05
-6.73651e-05
-5.25135e-05
-4.11132e-05
-3.23973e-05
-2.57278e-05
-2.05932e-05
-1.66121e-05
-1.3522e-05
-1.11482e-05
-9.36206e-06
-8.04651e-06
-7.08135e-06
-6.34848e-06
-5.74814e-06
-5.21331e-06
-4.71423e-06
-4.25061e-06
-3.83732e-06
-3.48882e-06
-3.20935e-06
-2.98971e-06
-2.8108e-06
-2.65009e-06
-2.48819e-06
-2.31296e-06
-2.1205e-06
-1.91344e-06
-1.69793e-06
-1.48051e-06
-1.26616e-06
-1.05745e-06
-8.55128e-07
-6.59514e-07
-4.68757e-07
-3.26965e-07
0.000760301
0.000760094
0.000759564
0.000758683
0.000757386
0.000755548
0.000752993
0.000749491
0.000744738
0.000738336
0.000729759
0.000718326
0.000703155
0.000683123
0.00065682
0.000622511
0.000578118
0.00052124
0.000449236
0.000359415
0.000249359
0.000117422
-3.65733e-05
-0.000210502
-0.000399082
-0.000593268
-0.000780272
-0.000944631
-0.00107057
-0.00114539
-0.0011629
-0.0011255
-0.00104349
-0.000932005
-0.000806741
-0.000680634
-0.000562439
-0.000456991
-0.00036623
-0.000290243
-0.000228023
-0.000177976
-0.000138273
-0.0001071
-8.28191e-05
-6.40397e-05
-4.96221e-05
-3.86316e-05
-3.02898e-05
-2.39505e-05
-1.90986e-05
-1.53547e-05
-1.24643e-05
-1.02618e-05
-8.62603e-06
-7.44335e-06
-6.59311e-06
-5.95523e-06
-5.42894e-06
-4.94868e-06
-4.48873e-06
-4.05424e-06
-3.66527e-06
-3.33988e-06
-3.08374e-06
-2.88715e-06
-2.72933e-06
-2.58593e-06
-2.43628e-06
-2.26798e-06
-2.07781e-06
-1.86979e-06
-1.6517e-06
-1.43166e-06
-1.21584e-06
-1.00757e-06
-8.07985e-07
-6.17584e-07
-4.3494e-07
-3.05253e-07
0.000760995
0.000760808
0.000760328
0.000759527
0.000758339
0.000756643
0.000754267
0.000750983
0.000746494
0.000740404
0.000732193
0.000721179
0.00070648
0.000686967
0.000661218
0.000627477
0.000583629
0.000527221
0.000455544
0.000365813
0.000255498
0.000122836
-3.24647e-05
-0.000208352
-0.000399539
-0.000596848
-0.000787203
-0.000954699
-0.00108303
-0.00115902
-0.00117625
-0.00113718
-0.00105255
-0.000938071
-0.000809946
-0.000681441
-0.000561432
-0.000454734
-0.000363204
-0.000286828
-0.000224502
-0.000174546
-0.000135058
-0.000104167
-8.01968e-05
-6.17336e-05
-4.76239e-05
-3.69235e-05
-2.88466e-05
-2.27407e-05
-1.80877e-05
-1.45107e-05
-1.17608e-05
-9.67977e-06
-8.15205e-06
-7.06602e-06
-6.30019e-06
-5.73238e-06
-5.26053e-06
-4.81995e-06
-4.38789e-06
-3.97365e-06
-3.60134e-06
-3.29177e-06
-3.05167e-06
-2.87081e-06
-2.72701e-06
-2.59434e-06
-2.45106e-06
-2.28453e-06
-2.09209e-06
-1.87895e-06
-1.65434e-06
-1.42775e-06
-1.20647e-06
-9.94582e-07
-7.9362e-07
-6.04268e-07
-4.25242e-07
-3.01007e-07
0.000761432
0.000761256
0.000760804
0.000760046
0.000758918
0.0007573
0.00075502
0.000751856
0.000747511
0.000741591
0.000733578
0.000722791
0.000708349
0.000689119
0.000663673
0.000630243
0.000586697
0.000530557
0.000459075
0.00036942
0.000259006
0.000126005
-2.99322e-05
-0.000206793
-0.00039929
-0.00059818
-0.000790239
-0.000959335
-0.00108889
-0.00116548
-0.00118256
-0.00114265
-0.0010567
-0.000940716
-0.000811173
-0.000681494
-0.000560609
-0.00045332
-0.000361438
-0.000284898
-0.000222546
-0.000172659
-0.000133298
-0.000102564
-7.87615e-05
-6.04665e-05
-4.65195e-05
-3.59723e-05
-2.80349e-05
-2.20512e-05
-1.75019e-05
-1.40113e-05
-1.13344e-05
-9.31758e-06
-7.84849e-06
-6.81648e-06
-6.09896e-06
-5.57191e-06
-5.13203e-06
-4.71485e-06
-4.29931e-06
-3.89733e-06
-3.5355e-06
-3.2364e-06
-3.00728e-06
-2.83747e-06
-2.7037e-06
-2.57886e-06
-2.4404e-06
-2.27545e-06
-2.08176e-06
-1.8654e-06
-1.6367e-06
-1.40622e-06
-1.18216e-06
-9.69206e-07
-7.69257e-07
-5.83117e-07
-4.09511e-07
-2.92534e-07
0.000761604
0.00076143
0.000760981
0.000760231
0.000759112
0.000757504
0.000755239
0.000752092
0.000747765
0.000741868
0.000733881
0.000723124
0.000708714
0.00068952
0.000664113
0.000630726
0.000587227
0.000531136
0.000459705
0.000370102
0.000259739
0.000126789
-2.90999e-05
-0.000205916
-0.000398371
-0.000597223
-0.000789246
-0.000958311
-0.00108784
-0.00116442
-0.0011815
-0.00114162
-0.00105574
-0.000939841
-0.000810399
-0.000680826
-0.000560041
-0.00045284
-0.000361032
-0.000284555
-0.000222255
-0.000172412
-0.000133086
-0.00010238
-7.86008e-05
-6.03251e-05
-4.63956e-05
-3.58647e-05
-2.79423e-05
-2.19715e-05
-1.74327e-05
-1.39507e-05
-1.1282e-05
-9.27425e-06
-7.81574e-06
-6.79559e-06
-6.09019e-06
-5.57415e-06
-5.14314e-06
-4.73231e-06
-4.32096e-06
-3.92178e-06
-3.56222e-06
-3.2654e-06
-3.03868e-06
-2.87101e-06
-2.73852e-06
-2.61348e-06
-2.47291e-06
-2.30384e-06
-2.10429e-06
-1.88089e-06
-1.64467e-06
-1.40695e-06
-1.17657e-06
-9.58747e-07
-7.5567e-07
-5.68336e-07
-3.95757e-07
-2.82189e-07
0.000761509
0.000761327
0.00076086
0.000760079
0.000758918
0.000757256
0.000754921
0.000751687
0.000747256
0.000741234
0.0007331
0.000722173
0.000707571
0.000688166
0.000662536
0.000628922
0.000585212
0.000528951
0.000457425
0.000367849
0.000257689
0.000125178
-2.99779e-05
-0.00020573
-0.000396793
-0.000593988
-0.000784239
-0.000951644
-0.0010799
-0.00115586
-0.0011731
-0.00113413
-0.00104969
-0.000935459
-0.000807635
-0.000679442
-0.000559726
-0.000453285
-0.000361974
-0.000285781
-0.000223608
-0.000173778
-0.000134391
-0.000103581
-7.96742e-05
-6.12641e-05
-4.72018e-05
-3.65455e-05
-2.85088e-05
-2.24372e-05
-1.7812e-05
-1.42579e-05
-1.15298e-05
-9.4736e-06
-7.97572e-06
-6.92389e-06
-6.1936e-06
-5.65875e-06
-5.21425e-06
-4.79429e-06
-4.37703e-06
-3.97404e-06
-3.61178e-06
-3.31266e-06
-3.08359e-06
-2.91328e-06
-2.77774e-06
-2.64918e-06
-2.50461e-06
-2.33111e-06
-2.1268e-06
-1.89853e-06
-1.6576e-06
-1.4157e-06
-1.18204e-06
-9.62122e-07
-7.58325e-07
-5.71614e-07
-4.00509e-07
-2.8761e-07
0.000761154
0.000760956
0.000760447
0.000759599
0.000758346
0.000756564
0.000754078
0.000750659
0.000746003
0.000739712
0.000731263
0.000719974
0.000704964
0.00068511
0.000659002
0.000624905
0.000580739
0.000524101
0.000452348
0.000362783
0.000252981
0.000121294
-3.24631e-05
-0.00020617
-0.000394546
-0.000588545
-0.00077538
-0.000939592
-0.00106542
-0.00114018
-0.00115774
-0.00112049
-0.00103878
-0.000927711
-0.000802936
-0.000677336
-0.00055962
-0.000454595
-0.000364196
-0.000288514
-0.000226549
-0.000176712
-0.000137181
-0.000106145
-8.19736e-05
-6.32861e-05
-4.89507e-05
-3.80363e-05
-2.97641e-05
-2.34847e-05
-1.8682e-05
-1.49793e-05
-1.21278e-05
-9.96813e-06
-8.38264e-06
-7.25666e-06
-6.46491e-06
-5.88121e-06
-5.39998e-06
-4.95381e-06
-4.51831e-06
-4.10204e-06
-3.72873e-06
-3.41885e-06
-3.17837e-06
-2.9959e-06
-2.84786e-06
-2.70705e-06
-2.55092e-06
-2.36679e-06
-2.15283e-06
-1.9158e-06
-1.66696e-06
-1.41799e-06
-1.1782e-06
-9.53254e-07
-7.45635e-07
-5.56377e-07
-3.84302e-07
-2.72803e-07
0.00076055
0.000760327
0.000759754
0.000758806
0.000757414
0.000755452
0.000752739
0.000749038
0.000744043
0.00073735
0.000728429
0.000716598
0.000700978
0.000680454
0.000653637
0.000618822
0.000573981
0.000516786
0.000444696
0.000355145
0.000245866
0.000115377
-3.63509e-05
-0.000207099
-0.000391605
-0.000581018
-0.00076297
-0.00092264
-0.00104502
-0.0011181
-0.00113609
-0.00110129
-0.00102344
-0.00091684
-0.00079639
-0.000674481
-0.00055962
-0.000456623
-0.000367534
-0.000292584
-0.000230915
-0.000181065
-0.000141318
-0.000109949
-8.53863e-05
-6.6289e-05
-5.15493e-05
-4.0252e-05
-3.16299e-05
-2.50417e-05
-1.99747e-05
-1.60505e-05
-1.30141e-05
-1.06988e-05
-8.98057e-06
-7.74143e-06
-6.85543e-06
-6.19673e-06
-5.65933e-06
-5.17364e-06
-4.71131e-06
-4.27618e-06
-3.88761e-06
-3.563e-06
-3.30687e-06
-3.10782e-06
-2.94313e-06
-2.78667e-06
-2.61678e-06
-2.42118e-06
-2.198e-06
-1.95369e-06
-1.69913e-06
-1.44572e-06
-1.20261e-06
-9.75427e-07
-7.66621e-07
-5.76974e-07
-4.04343e-07
-2.89207e-07
0.000759716
0.00075946
0.000758804
0.000757724
0.00075615
0.000753951
0.00075094
0.000746874
0.000741436
0.000734218
0.000724684
0.00071215
0.00069574
0.000674352
0.000646621
0.000610886
0.000565187
0.00050729
0.000434786
0.000345276
0.00023669
0.000107758
-4.13631e-05
-0.000208341
-0.000387947
-0.00057159
-0.000747434
-0.000901451
-0.00101956
-0.00109056
-0.00110912
-0.00107733
-0.00100425
-0.000903193
-0.000788134
-0.000670857
-0.000559608
-0.000459196
-0.000371789
-0.000297792
-0.000236519
-0.000186668
-0.000146659
-0.000114873
-8.98149e-05
-7.01955e-05
-5.49388e-05
-4.31505e-05
-3.40784e-05
-2.70919e-05
-2.16827e-05
-1.74704e-05
-1.41926e-05
-1.16728e-05
-9.77935e-06
-8.3901e-06
-7.37831e-06
-6.61866e-06
-6.00468e-06
-5.46399e-06
-4.96319e-06
-4.49997e-06
-4.08802e-06
-3.74074e-06
-3.46077e-06
-3.23674e-06
-3.0471e-06
-2.86724e-06
-2.67669e-06
-2.46374e-06
-2.22647e-06
-1.97086e-06
-1.70722e-06
-1.44645e-06
-1.19741e-06
-9.65605e-07
-7.53416e-07
-5.61534e-07
-3.87954e-07
-2.73776e-07
0.000758675
0.000758379
0.000757624
0.000756383
0.00075459
0.000752105
0.000748734
0.000744226
0.000738257
0.000730407
0.000720138
0.000706762
0.00068941
0.000666995
0.000638183
0.000601366
0.000554664
0.000495961
0.000423003
0.000333587
0.000225872
9.8827e-05
-4.71808e-05
-0.000209703
-0.000383568
-0.000560502
-0.000729295
-0.000876827
-0.000990058
-0.00105872
-0.0010779
-0.00104955
-0.000981909
-0.000887193
-0.00077835
-0.00066646
-0.00055945
-0.000462103
-0.000376715
-0.000303881
-0.000243112
-0.000193291
-0.000152994
-0.000120729
-9.50953e-05
-7.48627e-05
-5.89956e-05
-4.66255e-05
-3.70187e-05
-2.95573e-05
-2.37387e-05
-1.91805e-05
-1.56118e-05
-1.28456e-05
-1.07413e-05
-9.17172e-06
-8.00909e-06
-7.12846e-06
-6.42266e-06
-5.816e-06
-5.26919e-06
-4.77276e-06
-4.33373e-06
-3.96073e-06
-3.65411e-06
-3.40242e-06
-3.18543e-06
-2.98021e-06
-2.76766e-06
-2.53671e-06
-2.28535e-06
-2.01902e-06
-1.7473e-06
-1.4805e-06
-1.22712e-06
-9.92478e-07
-7.78794e-07
-5.86388e-07
-4.1206e-07
-2.93483e-07
0.000757457
0.000757116
0.000756245
0.000754821
0.000752776
0.000749964
0.000746182
0.00074117
0.000734593
0.000726025
0.000714921
0.000700593
0.000682177
0.000658607
0.000628585
0.000590568
0.000542766
0.000483197
0.00040978
0.000320533
0.000213864
8.89983e-05
-5.34769e-05
-0.000211004
-0.000378499
-0.000548051
-0.000709144
-0.000849644
-0.00095762
-0.00102375
-0.00104362
-0.00101895
-0.000957167
-0.000869322
-0.000767268
-0.000661317
-0.000559034
-0.000465143
-0.000382066
-0.000310588
-0.000250437
-0.000200693
-0.000160108
-0.000127332
-0.000101067
-8.01556e-05
-6.36079e-05
-5.05861e-05
-4.03781e-05
-3.23802e-05
-2.60968e-05
-2.11436e-05
-1.72415e-05
-1.41924e-05
-1.18458e-05
-1.00691e-05
-8.73277e-06
-7.71195e-06
-6.89847e-06
-6.21297e-06
-5.60979e-06
-5.07172e-06
-4.59854e-06
-4.19358e-06
-3.85457e-06
-3.56978e-06
-3.3202e-06
-3.08462e-06
-2.84536e-06
-2.592e-06
-2.32246e-06
-2.0416e-06
-1.75829e-06
-1.48226e-06
-1.22164e-06
-9.81594e-07
-7.64262e-07
-5.69793e-07
-3.94992e-07
-2.78017e-07
0.000756095
0.000755704
0.000754706
0.00075308
0.000750757
0.000747586
0.000743353
0.000737787
0.000730546
0.000721193
0.000709179
0.000693815
0.000674248
0.000649433
0.000618117
0.000578824
0.000529871
0.000469415
0.00039557
0.000306581
0.000201121
7.86788e-05
-5.99442e-05
-0.000212096
-0.000372807
-0.000534571
-0.000687608
-0.0008208
-0.000923346
-0.000986878
-0.00100744
-0.000986553
-0.000930812
-0.0008501
-0.000755157
-0.000655494
-0.000558273
-0.000468133
-0.000387598
-0.000317648
-0.000258223
-0.000208617
-0.000167765
-0.000134469
-0.000107543
-8.59117e-05
-6.86364e-05
-5.49146e-05
-4.40578e-05
-3.54784e-05
-2.86887e-05
-2.33035e-05
-1.90358e-05
-1.56764e-05
-1.30648e-05
-1.10622e-05
-9.53668e-06
-8.36288e-06
-7.43129e-06
-6.65867e-06
-5.99286e-06
-5.40872e-06
-4.89847e-06
-4.45987e-06
-4.08762e-06
-3.7694e-06
-3.48717e-06
-3.22129e-06
-2.95536e-06
-2.67961e-06
-2.39189e-06
-2.09654e-06
-1.80177e-06
-1.51679e-06
-1.24942e-06
-1.00472e-06
-7.84697e-07
-5.89125e-07
-4.1365e-07
-2.93561e-07
0.000754626
0.000754181
0.000753048
0.000751206
0.000748589
0.000745035
0.000740322
0.000734169
0.000726224
0.000716042
0.000703068
0.000686616
0.000665844
0.000639734
0.000607079
0.00056648
0.000516363
0.00045504
0.000380819
0.000292187
0.000188079
6.82432e-05
-6.63158e-05
-0.000212873
-0.000366601
-0.000520425
-0.000665316
-0.000791172
-0.000888295
-0.000949235
-0.000970479
-0.000953342
-0.000903618
-0.000830063
-0.000742321
-0.000649097
-0.000557122
-0.000470919
-0.000393096
-0.000324809
-0.000266214
-0.000216812
-0.000175731
-0.000141927
-0.000114337
-9.19682e-05
-7.39418e-05
-5.94927e-05
-4.79584e-05
-3.87688e-05
-3.14447e-05
-2.56014e-05
-2.09447e-05
-1.72547e-05
-1.4361e-05
-1.21181e-05
-1.0391e-05
-9.05314e-06
-7.99341e-06
-7.12468e-06
-6.38842e-06
-5.75173e-06
-5.19933e-06
-4.72317e-06
-4.31468e-06
-3.96057e-06
-3.64344e-06
-3.34493e-06
-3.04983e-06
-2.74898e-06
-2.44023e-06