# Force       
# CofR        : (0.000000e+00 0.000000e+00 0.000000e+00)
#
# Time        	total_x total_y total_z	pressure_x pressure_y pressure_z	viscous_x viscous_y viscous_z
1              8.040020e-01 1.129084e-01 -1.180675e-04 6.784597e-01 1.127540e-01 -1.176709e-04 1.255422e-01 1.544369e-04 -3.966173e-07
2              9.767128e-01 1.495860e-01 5.434317e-04 8.547224e-01 1.495115e-01 5.495607e-04 1.219904e-01 7.442739e-05 -6.129026e-06
3              9.120509e-01 1.404158e-01 -6.325351e-04 7.926515e-01 1.404232e-01 -6.224494e-04 1.193994e-01 -7.391669e-06 -1.008570e-05
4              7.221881e-01 1.051630e-01 -2.542121e-03 6.049087e-01 1.052472e-01 -2.533686e-03 1.172793e-01 -8.417559e-05 -8.434985e-06
5              4.906031e-01 6.122403e-02 -3.951999e-03 3.750630e-01 6.136616e-02 -3.946350e-03 1.155401e-01 -1.421338e-04 -5.649476e-06
6              2.787504e-01 2.170831e-02 -4.159930e-03 1.646470e-01 2.188526e-02 -4.156816e-03 1.141034e-01 -1.769476e-04 -3.114063e-06
7              1.225249e-01 -5.734577e-03 -3.242491e-03 9.629112e-03 -5.539143e-03 -3.248125e-03 1.128958e-01 -1.954343e-04 5.634397e-06
8              4.116151e-02 -1.788090e-02 -2.726176e-03 -7.069411e-02 -1.767978e-02 -2.733168e-03 1.118556e-01 -2.011224e-04 6.991447e-06
9              1.582203e-02 -1.833704e-02 -1.430163e-03 -9.510022e-02 -1.814688e-02 -1.437200e-03 1.109223e-01 -1.901560e-04 7.036585e-06
10             2.812642e-02 -1.124793e-02 2.304311e-04 -8.189373e-02 -1.108487e-02 2.207861e-04 1.100202e-01 -1.630524e-04 9.645081e-06
11             6.271080e-02 -3.321917e-04 1.760895e-03 -4.636657e-02 -2.079821e-04 1.749702e-03 1.090774e-01 -1.242097e-04 1.119311e-05
12             1.049423e-01 1.065263e-02 2.646141e-03 -3.141032e-03 1.073074e-02 2.634813e-03 1.080833e-01 -7.810966e-05 1.132762e-05
13             1.433651e-01 1.898674e-02 2.661911e-03 3.632200e-02 1.901626e-02 2.652353e-03 1.070431e-01 -2.952397e-05 9.557837e-06
14             1.711598e-01 2.339131e-02 1.888167e-03 6.516359e-02 2.338375e-02 1.881779e-03 1.059963e-01 7.564191e-06 6.388244e-06
15             1.860703e-01 2.404440e-02 6.509792e-04 8.110031e-02 2.400930e-02 6.470883e-04 1.049700e-01 3.510040e-05 3.890856e-06
16             1.900839e-01 2.214502e-02 -7.205397e-04 8.609394e-02 2.209207e-02 -7.219548e-04 1.039900e-01 5.294397e-05 1.415128e-06
17             1.871121e-01 1.881201e-02 -2.109834e-03 8.404330e-02 1.874891e-02 -2.109466e-03 1.030688e-01 6.309562e-05 -3.685535e-07
18             1.803712e-01 1.508969e-02 -3.331633e-03 7.815883e-02 1.502109e-02 -3.330519e-03 1.022123e-01 6.859321e-05 -1.113962e-06
19             1.726732e-01 1.192116e-02 -4.184864e-03 7.125555e-02 1.184904e-02 -4.183976e-03 1.014176e-01 7.212710e-05 -8.877285e-07
20             1.660162e-01 9.872336e-03 -4.573558e-03 6.533750e-02 9.796569e-03 -4.572046e-03 1.006787e-01 7.576697e-05 -1.512028e-06
21             1.614049e-01 9.041736e-03 -4.513129e-03 6.141784e-02 8.960384e-03 -4.512679e-03 9.998702e-02 8.135180e-05 -4.499372e-07
22             1.588825e-01 9.152221e-03 -4.121960e-03 5.954782e-02 9.062449e-03 -4.120517e-03 9.933465e-02 8.977258e-05 -1.443065e-06
23             1.578277e-01 9.836133e-03 -3.503728e-03 5.911295e-02 9.735866e-03 -3.503632e-03 9.871475e-02 1.002674e-04 -9.652061e-08
24             1.575401e-01 1.077775e-02 -2.747743e-03 5.941917e-02 1.066471e-02 -2.747280e-03 9.812092e-02 1.130397e-04 -4.630630e-07
25             1.574094e-01 1.165156e-02 -1.975209e-03 5.986194e-02 1.152416e-02 -1.976401e-03 9.754745e-02 1.273965e-04 1.191277e-06
26             1.569996e-01 1.220973e-02 -1.325710e-03 6.000541e-02 1.206719e-02 -1.327738e-03 9.699418e-02 1.425416e-04 2.027909e-06
27             1.561127e-01 1.234767e-02 -8.975777e-04 5.965186e-02 1.219004e-02 -9.010895e-04 9.646089e-02 1.576307e-04 3.511794e-06
28             1.547793e-01 1.210208e-02 -7.248145e-04 5.882990e-02 1.192994e-02 -7.286585e-04 9.594938e-02 1.721425e-04 3.843918e-06
29             1.531525e-01 1.159056e-02 -7.831835e-04 5.769177e-02 1.140489e-02 -7.873268e-04 9.546070e-02 1.856704e-04 4.143274e-06
30             1.515072e-01 1.095666e-02 -1.023945e-03 5.648273e-02 1.075848e-02 -1.028179e-03 9.502442e-02 1.981835e-04 4.234580e-06
31             1.498660e-01 1.025780e-02 -1.397597e-03 5.528559e-02 1.004847e-02 -1.401784e-03 9.458041e-02 2.093356e-04 4.186987e-06
32             1.484037e-01 9.593901e-03 -1.840496e-03 5.424495e-02 9.374391e-03 -1.844406e-03 9.415871e-02 2.195097e-04 3.910055e-06
33             1.472593e-01 9.050197e-03 -2.272727e-03 5.347488e-02 8.822930e-03 -2.276156e-03 9.378442e-02 2.272673e-04 3.428658e-06
34             1.464012e-01 8.655443e-03 -2.646000e-03 5.297236e-02 8.420822e-03 -2.649087e-03 9.342881e-02 2.346212e-04 3.086744e-06
35             1.458027e-01 8.417209e-03 -2.926440e-03 5.271276e-02 8.175461e-03 -2.928906e-03 9.308995e-02 2.417471e-04 2.466142e-06
36             1.453756e-01 8.302276e-03 -3.098436e-03 5.260983e-02 8.053687e-03 -3.100670e-03 9.276578e-02 2.485884e-04 2.233294e-06
37             1.449625e-01 8.238203e-03 -3.168787e-03 5.252875e-02 7.983078e-03 -3.170449e-03 9.243380e-02 2.551246e-04 1.661433e-06
38             1.445497e-01 8.199197e-03 -3.148315e-03 5.243382e-02 7.937684e-03 -3.149713e-03 9.211587e-02 2.615133e-04 1.398112e-06
39             1.441262e-01 8.162005e-03 -3.059771e-03 5.231393e-02 7.894290e-03 -3.060789e-03 9.181232e-02 2.677145e-04 1.018224e-06
40             1.436904e-01 8.110851e-03 -2.932325e-03 5.216827e-02 7.837176e-03 -2.933087e-03 9.152208e-02 2.736749e-04 7.625565e-07
41             1.432532e-01 8.037485e-03 -2.793234e-03 5.200824e-02 7.758292e-03 -2.793517e-03 9.124495e-02 2.791935e-04 2.836991e-07
42             1.428756e-01 7.957070e-03 -2.663221e-03 5.187817e-02 7.672622e-03 -2.663111e-03 9.099743e-02 2.844479e-04 -1.095952e-07
43             1.425376e-01 7.864672e-03 -2.554913e-03 5.177678e-02 7.575704e-03 -2.554751e-03 9.076079e-02 2.889678e-04 -1.613977e-07
44             1.422362e-01 7.759113e-03 -2.475023e-03 5.170137e-02 7.465989e-03 -2.474541e-03 9.053485e-02 2.931241e-04 -4.822583e-07
45             1.419678e-01 7.641894e-03 -2.424154e-03 5.164902e-02 7.345382e-03 -2.423233e-03 9.031880e-02 2.965122e-04 -9.208212e-07
46             1.416770e-01 7.505109e-03 -2.397550e-03 5.157983e-02 7.205698e-03 -2.396590e-03 9.009718e-02 2.994108e-04 -9.603591e-07
47             1.413816e-01 7.364502e-03 -2.387836e-03 5.149576e-02 7.062452e-03 -2.386798e-03 8.988583e-02 3.020493e-04 -1.037182e-06
48             1.410845e-01 7.232988e-03 -2.385812e-03 5.139993e-02 6.928685e-03 -2.384391e-03 8.968458e-02 3.043035e-04 -1.420885e-06
49             1.407853e-01 7.118726e-03 -2.382062e-03 5.129253e-02 6.812357e-03 -2.380684e-03 8.949277e-02 3.063694e-04 -1.378041e-06
50             1.404881e-01 7.023787e-03 -2.370987e-03 5.117789e-02 6.715550e-03 -2.369650e-03 8.931019e-02 3.082364e-04 -1.336827e-06
51             1.401981e-01 6.946902e-03 -2.348948e-03 5.106143e-02 6.637043e-03 -2.347375e-03 8.913668e-02 3.098587e-04 -1.572481e-06
52             1.399164e-01 6.886188e-03 -2.314158e-03 5.094470e-02 6.574776e-03 -2.312441e-03 8.897175e-02 3.114123e-04 -1.717413e-06
53             1.396442e-01 6.838118e-03 -2.266825e-03 5.082967e-02 6.525667e-03 -2.265362e-03 8.881452e-02 3.124510e-04 -1.462896e-06
54             1.393872e-01 6.800209e-03 -2.209618e-03 5.072150e-02 6.486576e-03 -2.207703e-03 8.866572e-02 3.136334e-04 -1.915088e-06
55             1.391276e-01 6.769780e-03 -2.145743e-03 5.061964e-02 6.455606e-03 -2.143959e-03 8.850793e-02 3.141740e-04 -1.784212e-06
56             1.388818e-01 6.744940e-03 -2.081345e-03 5.052284e-02 6.430216e-03 -2.079359e-03 8.835901e-02 3.147243e-04 -1.985787e-06
57             1.386475e-01 6.723012e-03 -2.019399e-03 5.042921e-02 6.408164e-03 -2.017530e-03 8.821827e-02 3.148483e-04 -1.869375e-06
58             1.384261e-01 6.702594e-03 -1.962001e-03 5.033981e-02 6.387512e-03 -1.959737e-03 8.808626e-02 3.150823e-04 -2.264306e-06
59             1.382146e-01 6.682317e-03 -1.908625e-03 5.025296e-02 6.367459e-03 -1.906532e-03 8.796165e-02 3.148576e-04 -2.092723e-06
60             1.380153e-01 6.662387e-03 -1.859906e-03 5.017053e-02 6.347691e-03 -1.857637e-03 8.784477e-02 3.146956e-04 -2.268191e-06
61             1.378274e-01 6.642795e-03 -1.814722e-03 5.009262e-02 6.328607e-03 -1.812626e-03 8.773475e-02 3.141885e-04 -2.095359e-06
62             1.376787e-01 6.630782e-03 -1.774113e-03 5.003978e-02 6.316949e-03 -1.771737e-03 8.763893e-02 3.138331e-04 -2.376120e-06
63             1.375538e-01 6.623568e-03 -1.736307e-03 5.000500e-02 6.310464e-03 -1.734125e-03 8.754884e-02 3.131044e-04 -2.181367e-06
64             1.374230e-01 6.613414e-03 -1.700121e-03 4.996503e-02 6.300999e-03 -1.697837e-03 8.745795e-02 3.124151e-04 -2.283458e-06
65             1.372918e-01 6.600806e-03 -1.664675e-03 4.991925e-02 6.289371e-03 -1.662614e-03 8.737251e-02 3.114350e-04 -2.060792e-06
66             1.371624e-01 6.587523e-03 -1.630977e-03 4.986961e-02 6.276927e-03 -1.628731e-03 8.729281e-02 3.105966e-04 -2.246818e-06
67             1.370349e-01 6.574690e-03 -1.598671e-03 4.981675e-02 6.265194e-03 -1.596547e-03 8.721814e-02 3.094954e-04 -2.123969e-06
68             1.369103e-01 6.563481e-03 -1.568419e-03 4.976194e-02 6.255023e-03 -1.566315e-03 8.714835e-02 3.084575e-04 -2.104339e-06
69             1.367900e-01 6.553704e-03 -1.539417e-03 4.970690e-02 6.246502e-03 -1.537538e-03 8.708313e-02 3.072024e-04 -1.879131e-06
70             1.366767e-01 6.545359e-03 -1.512156e-03 4.965405e-02 6.239250e-03 -1.510052e-03 8.702263e-02 3.061093e-04 -2.103355e-06
71             1.365697e-01 6.537879e-03 -1.485547e-03 4.960349e-02 6.233054e-03 -1.483587e-03 8.696620e-02 3.048249e-04 -1.960048e-06
72             1.364686e-01 6.531342e-03 -1.460536e-03 4.955510e-02 6.227763e-03 -1.458721e-03 8.691353e-02 3.035788e-04 -1.814943e-06
73             1.363757e-01 6.525188e-03 -1.436835e-03 4.951086e-02 6.222953e-03 -1.435030e-03 8.686480e-02 3.022347e-04 -1.804533e-06
74             1.362897e-01 6.519552e-03 -1.414962e-03 4.947018e-02 6.218555e-03 -1.413135e-03 8.681952e-02 3.009971e-04 -1.826643e-06
75             1.362116e-01 6.514000e-03 -1.394222e-03 4.943401e-02 6.214342e-03 -1.392407e-03 8.677762e-02 2.996581e-04 -1.814856e-06
76             1.361393e-01 6.508780e-03 -1.375267e-03 4.940077e-02 6.210458e-03 -1.373715e-03 8.673849e-02 2.983223e-04 -1.551953e-06
77             1.360783e-01 6.503571e-03 -1.358222e-03 4.937574e-02 6.206799e-03 -1.356581e-03 8.670256e-02 2.967717e-04 -1.641708e-06
78             1.360256e-01 6.498679e-03 -1.343092e-03 4.935614e-02 6.203280e-03 -1.341488e-03 8.666944e-02 2.953995e-04 -1.603787e-06
79             1.359736e-01 6.494440e-03 -1.329041e-03 4.933501e-02 6.200412e-03 -1.327119e-03 8.663863e-02 2.940282e-04 -1.922849e-06
80             1.359265e-01 6.490539e-03 -1.316026e-03 4.931638e-02 6.197889e-03 -1.314790e-03 8.661017e-02 2.926501e-04 -1.235802e-06
81             1.358817e-01 6.487129e-03 -1.304865e-03 4.929788e-02 6.195978e-03 -1.303260e-03 8.658385e-02 2.911513e-04 -1.605610e-06
82             1.358510e-01 6.485383e-03 -1.294375e-03 4.928875e-02 6.195210e-03 -1.292989e-03 8.656227e-02 2.901727e-04 -1.385748e-06
83             1.358279e-01 6.484061e-03 -1.285209e-03 4.928603e-02 6.195384e-03 -1.283311e-03 8.654189e-02 2.886768e-04 -1.898589e-06
84             1.358115e-01 6.483769e-03 -1.276088e-03 4.928827e-02 6.196235e-03 -1.275117e-03 8.652320e-02 2.875335e-04 -9.707256e-07
85             1.357937e-01 6.485075e-03 -1.268614e-03 4.928798e-02 6.198743e-03 -1.266915e-03 8.650570e-02 2.863313e-04 -1.699529e-06
86             1.357780e-01 6.487831e-03 -1.260594e-03 4.928799e-02 6.202270e-03 -1.259509e-03 8.649002e-02 2.855617e-04 -1.084342e-06
87             1.357610e-01 6.490752e-03 -1.253981e-03 4.928598e-02 6.206501e-03 -1.252303e-03 8.647501e-02 2.842516e-04 -1.678067e-06
88             1.357447e-01 6.494551e-03 -1.247058e-03 4.928332e-02 6.211211e-03 -1.246215e-03 8.646134e-02 2.833399e-04 -8.426720e-07
89             1.357256e-01 6.498981e-03 -1.241710e-03 4.927720e-02 6.216839e-03 -1.240209e-03 8.644838e-02 2.821420e-04 -1.501332e-06
90             1.357096e-01 6.504377e-03 -1.235686e-03 4.927251e-02 6.222850e-03 -1.234674e-03 8.643712e-02 2.815267e-04 -1.012306e-06
91             1.356819e-01 6.510826e-03 -1.230515e-03 4.925734e-02 6.230391e-03 -1.228882e-03 8.642456e-02 2.804348e-04 -1.633315e-06
92             1.356517e-01 6.518343e-03 -1.224323e-03 4.923828e-02 6.238543e-03 -1.223564e-03 8.641343e-02 2.797998e-04 -7.593740e-07
93             1.356170e-01 6.526474e-03 -1.219443e-03 4.921415e-02 6.247569e-03 -1.217969e-03 8.640280e-02 2.789050e-04 -1.473661e-06
94             1.355859e-01 6.535275e-03 -1.213979e-03 4.919213e-02 6.256769e-03 -1.213076e-03 8.639373e-02 2.785067e-04 -9.036037e-07
95             1.355544e-01 6.544413e-03 -1.209618e-03 4.916963e-02 6.266714e-03 -1.207969e-03 8.638479e-02 2.776990e-04 -1.649175e-06
96             1.355281e-01 6.554437e-03 -1.204460e-03 4.915120e-02 6.277121e-03 -1.203746e-03 8.637685e-02 2.773157e-04 -7.137208e-07
97             1.355034e-01 6.565185e-03 -1.200944e-03 4.913420e-02 6.288577e-03 -1.199564e-03 8.636917e-02 2.766077e-04 -1.380356e-06
98             1.354872e-01 6.577027e-03 -1.196854e-03 4.912430e-02 6.300579e-03 -1.195965e-03 8.636288e-02 2.764482e-04 -8.888519e-07
99             1.354722e-01 6.589714e-03 -1.193832e-03 4.911579e-02 6.313893e-03 -1.192256e-03 8.635638e-02 2.758214e-04 -1.575313e-06
100            1.354631e-01 6.603722e-03 -1.189959e-03 4.911236e-02 6.328113e-03 -1.189334e-03 8.635072e-02 2.756089e-04 -6.246616e-07
101            1.354552e-01 6.618761e-03 -1.187674e-03 4.911008e-02 6.343669e-03 -1.186337e-03 8.634512e-02 2.750917e-04 -1.336982e-06
102            1.354545e-01 6.634903e-03 -1.184573e-03 4.911379e-02 6.359846e-03 -1.183764e-03 8.634070e-02 2.750566e-04 -8.096945e-07
103            1.354532e-01 6.651709e-03 -1.182558e-03 4.911728e-02 6.377152e-03 -1.181061e-03 8.633590e-02 2.745566e-04 -1.497048e-06
104            1.354596e-01 6.668974e-03 -1.179606e-03 4.912717e-02 6.394476e-03 -1.178995e-03 8.633239e-02 2.744983e-04 -6.113740e-07
105            1.354669e-01 6.686402e-03 -1.178171e-03 4.913823e-02 6.412312e-03 -1.176838e-03 8.632867e-02 2.740899e-04 -1.332313e-06
106            1.354807e-01 6.704119e-03 -1.175907e-03 4.915465e-02 6.429937e-03 -1.175062e-03 8.632602e-02 2.741825e-04 -8.449050e-07
107            1.354919e-01 6.721761e-03 -1.174715e-03 4.916909e-02 6.447988e-03 -1.173169e-03 8.632278e-02 2.737733e-04 -1.545708e-06
108            1.355056e-01 6.739681e-03 -1.172416e-03 4.918533e-02 6.465881e-03 -1.171739e-03 8.632024e-02 2.737999e-04 -6.761164e-07
109            1.355158e-01 6.757551e-03 -1.171445e-03 4.919846e-02 6.484083e-03 -1.170042e-03 8.631739e-02 2.734686e-04 -1.403113e-06
110            1.355283e-01 6.775712e-03 -1.169481e-03 4.921277e-02 6.502089e-03 -1.168632e-03 8.631549e-02 2.736228e-04 -8.487144e-07
111            1.355365e-01 6.793641e-03 -1.168371e-03 4.922347e-02 6.520298e-03 -1.166857e-03 8.631305e-02 2.733423e-04 -1.514380e-06
112            1.355461e-01 6.811834e-03 -1.166063e-03 4.923482e-02 6.538353e-03 -1.165395e-03 8.631128e-02 2.734813e-04 -6.679249e-07
113            1.355519e-01 6.830041e-03 -1.164903e-03 4.924275e-02 6.556753e-03 -1.163541e-03 8.630914e-02 2.732877e-04 -1.361974e-06
114            1.355609e-01 6.848427e-03 -1.162522e-03 4.925303e-02 6.574870e-03 -1.161720e-03 8.630788e-02 2.735576e-04 -8.015987e-07
115            1.355663e-01 6.866629e-03 -1.161024e-03 4.926031e-02 6.593263e-03 -1.159515e-03 8.630598e-02 2.733663e-04 -1.508974e-06
116            1.355745e-01 6.885007e-03 -1.158043e-03 4.926972e-02 6.611379e-03 -1.157380e-03 8.630475e-02 2.736280e-04 -6.636206e-07
117            1.355801e-01 6.903171e-03 -1.156138e-03 4.927698e-02 6.629641e-03 -1.154736e-03 8.630307e-02 2.735294e-04 -1.401231e-06
118            1.355891e-01 6.921299e-03 -1.153066e-03 4.928697e-02 6.647445e-03 -1.152295e-03 8.630217e-02 2.738540e-04 -7.708967e-07
119            1.355956e-01 6.939006e-03 -1.150884e-03 4.929487e-02 6.665238e-03 -1.149365e-03 8.630070e-02 2.737682e-04 -1.518841e-06
120            1.356049e-01 6.956569e-03 -1.147367e-03 4.930506e-02 6.682491e-03 -1.146720e-03 8.629979e-02 2.740787e-04 -6.471692e-07
121            1.356169e-01 6.974864e-03 -1.144606e-03 4.931839e-02 6.700821e-03 -1.143200e-03 8.629848e-02 2.740430e-04 -1.406505e-06
122            1.356274e-01 6.990739e-03 -1.141201e-03 4.932950e-02 6.716315e-03 -1.140407e-03 8.629789e-02 2.744245e-04 -7.935900e-07
123            1.356345e-01 7.006152e-03 -1.138781e-03 4.933790e-02 6.731797e-03 -1.137278e-03 8.629662e-02 2.743544e-04 -1.502677e-06
124            1.356448e-01 7.021383e-03 -1.134984e-03 4.934880e-02 6.746679e-03 -1.134290e-03 8.629600e-02 2.747040e-04 -6.937416e-07
125            1.356525e-01 7.036085e-03 -1.132344e-03 4.935760e-02 6.761392e-03 -1.130879e-03 8.629488e-02 2.746934e-04 -1.464372e-06
126            1.356630e-01 7.050443e-03 -1.128509e-03 4.936864e-02 6.775388e-03 -1.127727e-03 8.629439e-02 2.750547e-04 -7.824878e-07
127            1.356705e-01 7.064127e-03 -1.125764e-03 4.937719e-02 6.789123e-03 -1.124231e-03 8.629331e-02 2.750034e-04 -1.532225e-06
128            1.356807e-01 7.077420e-03 -1.121727e-03 4.938789e-02 6.802067e-03 -1.121020e-03 8.629283e-02 2.753529e-04 -7.067231e-07
129            1.356881e-01 7.090033e-03 -1.119006e-03 4.939624e-02 6.814701e-03 -1.117532e-03 8.629186e-02 2.753314e-04 -1.474300e-06
130            1.356984e-01 7.102215e-03 -1.115066e-03 4.940682e-02 6.826517e-03 -1.114243e-03 8.629155e-02 2.756978e-04 -8.223768e-07
131            1.357050e-01 7.113718e-03 -1.112264e-03 4.941445e-02 6.838091e-03 -1.110737e-03 8.629055e-02 2.756267e-04 -1.527233e-06
132            1.357146e-01 7.124862e-03 -1.108231e-03 4.942439e-02 6.848884e-03 -1.107479e-03 8.629025e-02 2.759783e-04 -7.516438e-07
133            1.357212e-01 7.135390e-03 -1.105470e-03 4.943182e-02 6.859443e-03 -1.103952e-03 8.628940e-02 2.759475e-04 -1.517226e-06
134            1.357303e-01 7.145592e-03 -1.101542e-03 4.944116e-02 6.869309e-03 -1.100724e-03 8.628916e-02 2.762827e-04 -8.179969e-07
135            1.357359e-01 7.155209e-03 -1.098838e-03 4.944766e-02 6.879014e-03 -1.097306e-03 8.628827e-02 2.761943e-04 -1.532734e-06
136            1.357474e-01 7.164958e-03 -1.094389e-03 4.945933e-02 6.888420e-03 -1.093618e-03 8.628810e-02 2.765376e-04 -7.714611e-07
137            1.357553e-01 7.173479e-03 -1.091354e-03 4.946795e-02 6.896991e-03 -1.089826e-03 8.628735e-02 2.764874e-04 -1.528583e-06
138            1.357631e-01 7.181083e-03 -1.087865e-03 4.947586e-02 6.904275e-03 -1.087023e-03 8.628723e-02 2.768071e-04 -8.421402e-07
139            1.357670e-01 7.188450e-03 -1.085571e-03 4.948060e-02 6.911763e-03 -1.084041e-03 8.628640e-02 2.766875e-04 -1.530658e-06
140            1.357742e-01 7.195893e-03 -1.082051e-03 4.948784e-02 6.918873e-03 -1.081243e-03 8.628635e-02 2.770200e-04 -8.083557e-07
141            1.357780e-01 7.203137e-03 -1.079752e-03 4.949238e-02 6.926190e-03 -1.078201e-03 8.628566e-02 2.769471e-04 -1.550198e-06
142            1.357845e-01 7.210429e-03 -1.076242e-03 4.949889e-02 6.933177e-03 -1.075383e-03 8.628560e-02 2.772523e-04 -8.593934e-07
143            1.357873e-01 7.217478e-03 -1.073960e-03 4.950245e-02 6.940353e-03 -1.072418e-03 8.628485e-02 2.771247e-04 -1.542301e-06
144            1.357936e-01 7.224530e-03 -1.070502e-03 4.950875e-02 6.947073e-03 -1.069660e-03 8.628490e-02 2.774567e-04 -8.423583e-07
145            1.357967e-01 7.231266e-03 -1.068295e-03 4.951241e-02 6.953895e-03 -1.066730e-03 8.628426e-02 2.773709e-04 -1.564259e-06
146            1.358026e-01 7.237950e-03 -1.064920e-03 4.951830e-02 6.960279e-03 -1.064040e-03 8.628428e-02 2.776706e-04 -8.808794e-07
147            1.358049e-01 7.244287e-03 -1.062807e-03 4.952135e-02 6.966754e-03 -1.061245e-03 8.628358e-02 2.775336e-04 -1.562049e-06
148            1.358110e-01 7.250557e-03 -1.059563e-03 4.952732e-02 6.972699e-03 -1.058694e-03 8.628370e-02 2.778585e-04 -8.685634e-07
149            1.358152e-01 7.256802e-03 -1.057088e-03 4.953214e-02 6.979045e-03 -1.055522e-03 8.628310e-02 2.777567e-04 -1.566234e-06
150            1.358209e-01 7.262230e-03 -1.054143e-03 4.953773e-02 6.984180e-03 -1.053243e-03 8.628319e-02 2.780498e-04 -9.005657e-07
151            1.358230e-01 7.267362e-03 -1.052450e-03 4.954044e-02 6.989463e-03 -1.050871e-03 8.628254e-02 2.778986e-04 -1.579059e-06
152            1.358287e-01 7.272510e-03 -1.049633e-03 4.954603e-02 6.994300e-03 -1.048743e-03 8.628271e-02 2.782099e-04 -8.893109e-07
153            1.358309e-01 7.277403e-03 -1.048082e-03 4.954879e-02 6.999314e-03 -1.046515e-03 8.628214e-02 2.780884e-04 -1.567201e-06
154            1.358363e-01 7.282305e-03 -1.045405e-03 4.955402e-02 7.003934e-03 -1.044489e-03 8.628227e-02 2.783715e-04 -9.157927e-07
155            1.358380e-01 7.286930e-03 -1.043963e-03 4.955637e-02 7.008717e-03 -1.042362e-03 8.628168e-02 2.782122e-04 -1.600569e-06
156            1.358435e-01 7.291563e-03 -1.041392e-03 4.956161e-02 7.013049e-03 -1.040488e-03 8.628189e-02 2.785134e-04 -9.040855e-07
157            1.358453e-01 7.295921e-03 -1.040096e-03 4.956398e-02 7.017541e-03 -1.038526e-03 8.628134e-02 2.783802e-04 -1.570579e-06
158            1.358504e-01 7.300264e-03 -1.037706e-03 4.956886e-02 7.021611e-03 -1.036780e-03 8.628151e-02 2.786530e-04 -9.256307e-07
159            1.358518e-01 7.304301e-03 -1.036564e-03 4.957089e-02 7.025819e-03 -1.034955e-03 8.628096e-02 2.784815e-04 -1.608538e-06
160            1.358571e-01 7.308337e-03 -1.034284e-03 4.957587e-02 7.029561e-03 -1.033363e-03 8.628121e-02 2.787754e-04 -9.208241e-07
161            1.358586e-01 7.312094e-03 -1.033271e-03 4.957790e-02 7.033466e-03 -1.031701e-03 8.628068e-02 2.786283e-04 -1.570142e-06
162            1.358635e-01 7.315833e-03 -1.031175e-03 4.958255e-02 7.036938e-03 -1.030239e-03 8.628090e-02 2.788943e-04 -9.359845e-07
163            1.358657e-01 7.319463e-03 -1.030017e-03 4.958536e-02 7.040748e-03 -1.028393e-03 8.628038e-02 2.787152e-04 -1.623748e-06
164            1.358718e-01 7.322719e-03 -1.027901e-03 4.959113e-02 7.043721e-03 -1.026975e-03 8.628066e-02 2.789978e-04 -9.260815e-07
165            1.358729e-01 7.325491e-03 -1.027277e-03 4.959272e-02 7.046651e-03 -1.025707e-03 8.628016e-02 2.788394e-04 -1.569961e-06
166            1.358773e-01 7.328345e-03 -1.025557e-03 4.959687e-02 7.049249e-03 -1.024612e-03 8.628041e-02 2.790963e-04 -9.451146e-07
167            1.358780e-01 7.331037e-03 -1.025031e-03 4.959808e-02 7.052132e-03 -1.023400e-03 8.627991e-02 2.789047e-04 -1.631044e-06
168            1.358824e-01 7.333852e-03 -1.023314e-03 4.960216e-02 7.054675e-03 -1.022383e-03 8.628020e-02 2.791774e-04 -9.310817e-07
169            1.358830e-01 7.336519e-03 -1.022838e-03 4.960324e-02 7.057508e-03 -1.021266e-03 8.627972e-02 2.790106e-04 -1.572257e-06
170            1.358869e-01 7.339274e-03 -1.021271e-03 4.960693e-02 7.060011e-03 -1.020317e-03 8.627999e-02 2.792630e-04 -9.540637e-07
171            1.358872e-01 7.341824e-03 -1.020896e-03 4.960773e-02 7.062758e-03 -1.019267e-03 8.627951e-02 2.790660e-04 -1.629516e-06
172            1.358912e-01 7.344459e-03 -1.019347e-03 4.961141e-02 7.065125e-03 -1.018414e-03 8.627982e-02 2.793342e-04 -9.327077e-07
173            1.358915e-01 7.346895e-03 -1.019043e-03 4.961216e-02 7.067732e-03 -1.017464e-03 8.627936e-02 2.791633e-04 -1.579241e-06
174            1.358952e-01 7.349375e-03 -1.017643e-03 4.961558e-02 7.069964e-03 -1.016686e-03 8.627965e-02 2.794105e-04 -9.577422e-07
175            1.358953e-01 7.351623e-03 -1.017441e-03 4.961610e-02 7.072417e-03 -1.015809e-03 8.627917e-02 2.792060e-04 -1.632609e-06
176            1.358991e-01 7.353932e-03 -1.016055e-03 4.961958e-02 7.074462e-03 -1.015118e-03 8.627951e-02 2.794699e-04 -9.366776e-07
177            1.358992e-01 7.356031e-03 -1.015903e-03 4.962017e-02 7.076737e-03 -1.014319e-03 8.627905e-02 2.792944e-04 -1.583549e-06
178            1.359028e-01 7.358169e-03 -1.014653e-03 4.962342e-02 7.078634e-03 -1.013689e-03 8.627936e-02 2.795352e-04 -9.639397e-07
179            1.359032e-01 7.360188e-03 -1.014434e-03 4.962436e-02 7.080864e-03 -1.012806e-03 8.627889e-02 2.793244e-04 -1.627991e-06
180            1.359077e-01 7.362017e-03 -1.013171e-03 4.962841e-02 7.082433e-03 -1.012229e-03 8.627925e-02 2.795843e-04 -9.420914e-07
181            1.359076e-01 7.363541e-03 -1.013203e-03 4.962881e-02 7.084137e-03 -1.011611e-03 8.627881e-02 2.794038e-04 -1.591742e-06
