# Moment      
# CofR        : (0.000000e+00 0.000000e+00 0.000000e+00)
#
# Time        	total_x total_y total_z	pressure_x pressure_y pressure_z	viscous_x viscous_y viscous_z
1              -3.372598e-06 -1.498881e-05 2.354805e-02 -3.303682e-06 -1.998107e-05 2.343269e-02 -6.891593e-08 4.992257e-06 1.153612e-04
2              1.186153e-06 -6.303092e-05 3.269382e-02 1.100665e-06 -6.604621e-05 3.257491e-02 8.548864e-08 3.015284e-06 1.189050e-04
3              8.570929e-06 -2.172187e-04 3.128954e-02 8.320375e-06 -2.187535e-04 3.117467e-02 2.505538e-07 1.534774e-06 1.148745e-04
4              1.527486e-05 -3.915154e-04 2.360379e-02 1.488515e-05 -3.920667e-04 2.349514e-02 3.897058e-07 5.512887e-07 1.086448e-04
5              1.852134e-05 -4.618594e-04 1.352163e-02 1.802712e-05 -4.620299e-04 1.341971e-02 4.942195e-07 1.705043e-07 1.019120e-04
6              1.804570e-05 -3.814194e-04 4.146071e-03 1.748954e-05 -3.818381e-04 4.050078e-03 5.561595e-07 4.186754e-07 9.599377e-05
7              1.509620e-05 -1.745104e-04 -2.644248e-03 1.451335e-05 -1.755665e-04 -2.736802e-03 5.828542e-07 1.056099e-06 9.255376e-05
8              1.517338e-05 3.166205e-04 -5.950424e-03 1.460975e-05 3.148210e-04 -6.043087e-03 5.636307e-07 1.799478e-06 9.266349e-05
9              1.092136e-05 7.184166e-04 -6.551880e-03 1.040986e-05 7.159875e-04 -6.647833e-03 5.114978e-07 2.429145e-06 9.595303e-05
10             2.783089e-06 8.525075e-04 -5.247552e-03 2.341957e-06 8.496989e-04 -5.348984e-03 4.411324e-07 2.808640e-06 1.014321e-04
11             -7.198514e-06 7.132078e-04 -2.900538e-03 -7.565521e-06 7.103601e-04 -3.008878e-03 3.670071e-07 2.847719e-06 1.083400e-04
12             -1.663695e-05 3.708715e-04 -3.509857e-04 -1.693894e-05 3.682852e-04 -4.669245e-04 3.019941e-07 2.586364e-06 1.159388e-04
13             -2.356668e-05 -6.101999e-05 1.786252e-03 -2.382142e-05 -6.315035e-05 1.662810e-03 2.547424e-07 2.130351e-06 1.234418e-04
14             -2.662707e-05 -4.618743e-04 3.197386e-03 -2.685642e-05 -4.634893e-04 3.067078e-03 2.293500e-07 1.614923e-06 1.303080e-04
15             -2.514172e-05 -7.452911e-04 3.835414e-03 -2.536606e-05 -7.464379e-04 3.699294e-03 2.243403e-07 1.146865e-06 1.361198e-04
16             -1.950886e-05 -8.553220e-04 3.877925e-03 -1.974234e-05 -8.561287e-04 3.737115e-03 2.334741e-07 8.066582e-07 1.408096e-04
17             -1.138522e-05 -7.703980e-04 3.564340e-03 -1.163354e-05 -7.710483e-04 3.419694e-03 2.483237e-07 6.502568e-07 1.446459e-04
18             -2.228011e-06 -5.198953e-04 3.099256e-03 -2.488461e-06 -5.205681e-04 2.951629e-03 2.604507e-07 6.728895e-07 1.476268e-04
19             6.406252e-06 -1.734728e-04 2.645016e-03 6.141586e-06 -1.743121e-04 2.495070e-03 2.646666e-07 8.392703e-07 1.499467e-04
20             1.307512e-05 1.822896e-04 2.293087e-03 1.281557e-05 1.812002e-04 2.141244e-03 2.595510e-07 1.089395e-06 1.518430e-04
21             1.679509e-05 4.707654e-04 2.066757e-03 1.655034e-05 4.694267e-04 1.913233e-03 2.447483e-07 1.338662e-06 1.535241e-04
22             1.735375e-05 6.531488e-04 1.943145e-03 1.712870e-05 6.516235e-04 1.788041e-03 2.250435e-07 1.525306e-06 1.551045e-04
23             1.523726e-05 7.262276e-04 1.879052e-03 1.503451e-05 7.246192e-04 1.722431e-03 2.027422e-07 1.608395e-06 1.566216e-04
24             1.117542e-05 6.887128e-04 1.824398e-03 1.099415e-05 6.871448e-04 1.666514e-03 1.812642e-07 1.568032e-06 1.578848e-04
25             6.305898e-06 5.712502e-04 1.758729e-03 6.138402e-06 5.698052e-04 1.599785e-03 1.674960e-07 1.445055e-06 1.589440e-04
26             1.454106e-06 4.013690e-04 1.676419e-03 1.297633e-06 4.001039e-04 1.516515e-03 1.564726e-07 1.265025e-06 1.599047e-04
27             -2.641034e-06 2.123664e-04 1.583880e-03 -2.789673e-06 2.113183e-04 1.423155e-03 1.486391e-07 1.048113e-06 1.607256e-04
28             -5.497790e-06 3.487361e-05 1.493287e-03 -5.640970e-06 3.405116e-05 1.331915e-03 1.431798e-07 8.224554e-07 1.613725e-04
29             -6.968165e-06 -1.120641e-04 1.414390e-03 -7.105676e-06 -1.126801e-04 1.252558e-03 1.375112e-07 6.160092e-07 1.618322e-04
30             -7.130395e-06 -2.203638e-04 1.352563e-03 -7.261334e-06 -2.208108e-04 1.190445e-03 1.309390e-07 4.470162e-07 1.621179e-04
31             -6.173180e-06 -2.844711e-04 1.312731e-03 -6.296440e-06 -2.847926e-04 1.150489e-03 1.232600e-07 3.215122e-07 1.622423e-04
32             -4.398934e-06 -3.024900e-04 1.297454e-03 -4.512793e-06 -3.027292e-04 1.135219e-03 1.138591e-07 2.392570e-07 1.622350e-04
33             -2.184651e-06 -2.786679e-04 1.304590e-03 -2.287230e-06 -2.788598e-04 1.142462e-03 1.025783e-07 1.919644e-07 1.621281e-04
34             9.375880e-08 -2.221311e-04 1.327885e-03 3.798677e-09 -2.222972e-04 1.165947e-03 8.996012e-08 1.660253e-07 1.619376e-04
35             2.089733e-06 -1.458758e-04 1.357455e-03 2.012450e-06 -1.460227e-04 1.195763e-03 7.728329e-08 1.469136e-07 1.616921e-04
36             3.514854e-06 -6.681496e-05 1.380618e-03 3.450007e-06 -6.694059e-05 1.219207e-03 6.484749e-08 1.256218e-07 1.614119e-04
37             4.238946e-06 -1.084632e-07 1.387963e-03 4.185480e-06 -2.013147e-07 1.226868e-03 5.346541e-08 9.285144e-08 1.610948e-04
38             4.316588e-06 4.761245e-05 1.377397e-03 4.272964e-06 4.756623e-05 1.216658e-03 4.362378e-08 4.621731e-08 1.607387e-04
39             3.883500e-06 7.549430e-05 1.350635e-03 3.847851e-06 7.550667e-05 1.190295e-03 3.564935e-08 -1.236294e-08 1.603396e-04
40             3.104765e-06 8.527163e-05 1.311124e-03 3.075043e-06 8.534726e-05 1.151230e-03 2.972176e-08 -7.562745e-08 1.598943e-04
41             2.154568e-06 8.073014e-05 1.263572e-03 2.129277e-06 8.086900e-05 1.104180e-03 2.529119e-08 -1.388629e-07 1.593915e-04
42             1.187757e-06 6.682184e-05 1.212934e-03 1.165476e-06 6.701810e-05 1.054103e-03 2.228094e-08 -1.962559e-07 1.588311e-04
43             3.207572e-07 4.851003e-05 1.163530e-03 3.004722e-07 4.875822e-05 1.005312e-03 2.028492e-08 -2.481933e-07 1.582179e-04
44             -3.536619e-07 3.027399e-05 1.119551e-03 -3.725053e-07 3.056231e-05 9.619903e-04 1.884343e-08 -2.883163e-07 1.575608e-04
45             -7.696730e-07 1.584010e-05 1.084809e-03 -7.871229e-07 1.615399e-05 9.279471e-04 1.744987e-08 -3.138943e-07 1.568621e-04
46             -9.195189e-07 7.502716e-06 1.061000e-03 -9.353956e-07 7.830663e-06 9.048693e-04 1.587668e-08 -3.279472e-07 1.561305e-04
47             -8.530183e-07 5.701500e-06 1.047259e-03 -8.670491e-07 6.036416e-06 8.918879e-04 1.403076e-08 -3.349168e-07 1.553711e-04
48             -6.450253e-07 9.476894e-06 1.041271e-03 -6.568584e-07 9.814791e-06 8.866821e-04 1.183301e-08 -3.378969e-07 1.545891e-04
49             -3.666039e-07 1.717111e-05 1.040510e-03 -3.760179e-07 1.751328e-05 8.867207e-04 9.414042e-09 -3.421732e-07 1.537895e-04
50             -7.672310e-08 2.690911e-05 1.042728e-03 -8.362113e-08 2.726157e-05 8.897581e-04 6.898030e-09 -3.524513e-07 1.529700e-04
51             1.749667e-07 3.684938e-05 1.045940e-03 1.705660e-07 3.721673e-05 8.938094e-04 4.400716e-09 -3.673470e-07 1.521305e-04
52             3.505330e-07 4.547492e-05 1.048462e-03 3.485456e-07 4.586179e-05 8.971889e-04 1.987377e-09 -3.868673e-07 1.512732e-04
53             4.349665e-07 5.190397e-05 1.049286e-03 4.351924e-07 5.231454e-05 8.988913e-04 -2.259103e-10 -4.105725e-07 1.503948e-04
54             4.370849e-07 5.630566e-05 1.045896e-03 4.392092e-07 5.674383e-05 8.964690e-04 -2.124368e-09 -4.381705e-07 1.494272e-04
55             3.800673e-07 5.889580e-05 1.040083e-03 3.838427e-07 5.936133e-05 8.916492e-04 -3.775376e-09 -4.655311e-07 1.484339e-04
56             2.889923e-07 5.972699e-05 1.035418e-03 2.941468e-07 6.021512e-05 8.879563e-04 -5.154518e-09 -4.881253e-07 1.474616e-04
57             1.860895e-07 5.961015e-05 1.032103e-03 1.921631e-07 6.011634e-05 8.856200e-04 -6.073569e-09 -5.061900e-07 1.464827e-04
58             9.263189e-08 5.943426e-05 1.030220e-03 9.934960e-08 5.995213e-05 8.847249e-04 -6.717711e-09 -5.178679e-07 1.454951e-04
59             2.439247e-08 5.999708e-05 1.029790e-03 3.147398e-08 6.052066e-05 8.852812e-04 -7.081506e-09 -5.235875e-07 1.445093e-04
60             -1.295228e-08 6.173912e-05 1.030778e-03 -5.644166e-09 6.226726e-05 8.872413e-04 -7.308112e-09 -5.281370e-07 1.435366e-04
61             -2.038868e-08 6.507852e-05 1.031944e-03 -1.295651e-08 6.561062e-05 8.894103e-04 -7.432168e-09 -5.321023e-07 1.425332e-04
62             -7.872262e-09 6.926332e-05 1.033823e-03 -4.337086e-10 6.979440e-05 8.922816e-04 -7.438554e-09 -5.310789e-07 1.415413e-04
63             1.834418e-08 7.373147e-05 1.036744e-03 2.564607e-08 7.426084e-05 8.961749e-04 -7.301884e-09 -5.293757e-07 1.405688e-04
64             5.613177e-08 7.825032e-05 1.041017e-03 6.324241e-08 7.877913e-05 9.013839e-04 -7.110639e-09 -5.288105e-07 1.396330e-04
65             1.029071e-07 8.266283e-05 1.046823e-03 1.098035e-07 8.319325e-05 9.080898e-04 -6.896332e-09 -5.304235e-07 1.387337e-04
66             1.550474e-07 8.681695e-05 1.054164e-03 1.617129e-07 8.734963e-05 9.162892e-04 -6.665570e-09 -5.326846e-07 1.378749e-04
67             2.094918e-07 9.062213e-05 1.062939e-03 2.159094e-07 9.115797e-05 9.258834e-04 -6.417606e-09 -5.358317e-07 1.370557e-04
68             2.643630e-07 9.407762e-05 1.073073e-03 2.705412e-07 9.461616e-05 9.367977e-04 -6.178134e-09 -5.385309e-07 1.362757e-04
69             3.174986e-07 9.715711e-05 1.084351e-03 3.234110e-07 9.769780e-05 9.488140e-04 -5.912373e-09 -5.406935e-07 1.355373e-04
70             3.648940e-07 9.968897e-05 1.095989e-03 3.705418e-07 1.002314e-04 9.611467e-04 -5.647782e-09 -5.424583e-07 1.348424e-04
71             3.981203e-07 1.012174e-04 1.106720e-03 4.035171e-07 1.017608e-04 9.725109e-04 -5.396758e-09 -5.434378e-07 1.342093e-04
72             4.222251e-07 1.020918e-04 1.116298e-03 4.273530e-07 1.026355e-04 9.826839e-04 -5.127920e-09 -5.436845e-07 1.336141e-04
73             4.429661e-07 1.026914e-04 1.124997e-03 4.478134e-07 1.032338e-04 9.919434e-04 -4.847229e-09 -5.423774e-07 1.330536e-04
74             4.636965e-07 1.032836e-04 1.133208e-03 4.682819e-07 1.038233e-04 1.000683e-03 -4.585378e-09 -5.397236e-07 1.325246e-04
75             4.854238e-07 1.039988e-04 1.141231e-03 4.897603e-07 1.045352e-04 1.009206e-03 -4.336493e-09 -5.363363e-07 1.320250e-04
76             5.074359e-07 1.048586e-04 1.149223e-03 5.115437e-07 1.053906e-04 1.017670e-03 -4.107822e-09 -5.319516e-07 1.315534e-04
77             5.281386e-07 1.058171e-04 1.157239e-03 5.320165e-07 1.063447e-04 1.026130e-03 -3.877858e-09 -5.275442e-07 1.311082e-04
78             5.458027e-07 1.068042e-04 1.165285e-03 5.494411e-07 1.073277e-04 1.034597e-03 -3.638384e-09 -5.234887e-07 1.306878e-04
79             5.590245e-07 1.077484e-04 1.173353e-03 5.624108e-07 1.082681e-04 1.043061e-03 -3.386229e-09 -5.196592e-07 1.302925e-04
80             5.664432e-07 1.085675e-04 1.181303e-03 5.695583e-07 1.090838e-04 1.051380e-03 -3.115074e-09 -5.163862e-07 1.299224e-04
81             5.666043e-07 1.091673e-04 1.188799e-03 5.694427e-07 1.096801e-04 1.059223e-03 -2.838403e-09 -5.128722e-07 1.295759e-04
82             5.590991e-07 1.094837e-04 1.195530e-03 5.616515e-07 1.099926e-04 1.066277e-03 -2.552443e-09 -5.089621e-07 1.292524e-04
83             5.453073e-07 1.095179e-04 1.201419e-03 5.475676e-07 1.100228e-04 1.072468e-03 -2.260354e-09 -5.048459e-07 1.289506e-04
84             5.276912e-07 1.093225e-04 1.206608e-03 5.296511e-07 1.098232e-04 1.077938e-03 -1.959841e-09 -5.006503e-07 1.286703e-04
85             5.086471e-07 1.089636e-04 1.211295e-03 5.102969e-07 1.094597e-04 1.082883e-03 -1.649797e-09 -4.961160e-07 1.284117e-04
86             4.899112e-07 1.084967e-04 1.215622e-03 4.912493e-07 1.089883e-04 1.087448e-03 -1.338055e-09 -4.915813e-07 1.281740e-04
87             4.725134e-07 1.079621e-04 1.219661e-03 4.735331e-07 1.084490e-04 1.091704e-03 -1.019673e-09 -4.868764e-07 1.279569e-04
88             4.569255e-07 1.073863e-04 1.223442e-03 4.576151e-07 1.078687e-04 1.095683e-03 -6.896146e-10 -4.824347e-07 1.277593e-04
89             4.432514e-07 1.067858e-04 1.226982e-03 4.436075e-07 1.072638e-04 1.099400e-03 -3.560593e-10 -4.779679e-07 1.275813e-04
90             4.313851e-07 1.061691e-04 1.230291e-03 4.314058e-07 1.066424e-04 1.102869e-03 -2.072738e-11 -4.733131e-07 1.274219e-04
91             4.209755e-07 1.055364e-04 1.233360e-03 4.206591e-07 1.060051e-04 1.106080e-03 3.163875e-10 -4.687125e-07 1.272804e-04
92             4.113808e-07 1.048830e-04 1.236134e-03 4.107219e-07 1.053471e-04 1.108978e-03 6.588922e-10 -4.640723e-07 1.271556e-04
93             4.019842e-07 1.042056e-04 1.238543e-03 4.009782e-07 1.046647e-04 1.111497e-03 1.005989e-09 -4.591253e-07 1.270465e-04
94             3.926339e-07 1.035086e-04 1.240580e-03 3.912894e-07 1.039625e-04 1.113628e-03 1.344563e-09 -4.538970e-07 1.269520e-04
95             3.836529e-07 1.028018e-04 1.242304e-03 3.819758e-07 1.032504e-04 1.115433e-03 1.677082e-09 -4.485532e-07 1.268710e-04
96             3.754729e-07 1.020959e-04 1.243807e-03 3.734697e-07 1.025390e-04 1.117005e-03 2.003238e-09 -4.431557e-07 1.268023e-04
97             3.683885e-07 1.013993e-04 1.245170e-03 3.660659e-07 1.018369e-04 1.118425e-03 2.322653e-09 -4.376679e-07 1.267450e-04
98             3.625002e-07 1.007187e-04 1.246446e-03 3.598637e-07 1.011509e-04 1.119748e-03 2.636531e-09 -4.321965e-07 1.266979e-04
99             3.577463e-07 1.000597e-04 1.247660e-03 3.548030e-07 1.004865e-04 1.121000e-03 2.943387e-09 -4.267650e-07 1.266601e-04
100            3.539730e-07 9.942625e-05 1.248826e-03 3.507301e-07 9.984763e-05 1.122196e-03 3.242937e-09 -4.213824e-07 1.266304e-04
101            3.509942e-07 9.882059e-05 1.249945e-03 3.474589e-07 9.923667e-05 1.123338e-03 3.535269e-09 -4.160730e-07 1.266077e-04
102            3.486248e-07 9.824352e-05 1.251016e-03 3.448042e-07 9.865438e-05 1.124425e-03 3.820562e-09 -4.108640e-07 1.265910e-04
103            3.466817e-07 9.769482e-05 1.252034e-03 3.425826e-07 9.810060e-05 1.125455e-03 4.099066e-09 -4.057874e-07 1.265792e-04
104            3.449816e-07 9.717418e-05 1.252992e-03 3.406104e-07 9.757503e-05 1.126421e-03 4.371156e-09 -4.008561e-07 1.265713e-04
105            3.433652e-07 9.668157e-05 1.253883e-03 3.387280e-07 9.707764e-05 1.127317e-03 4.637185e-09 -3.960690e-07 1.265664e-04
106            3.417393e-07 9.621682e-05 1.254705e-03 3.368422e-07 9.660828e-05 1.128141e-03 4.897105e-09 -3.914541e-07 1.265638e-04
107            3.400940e-07 9.577922e-05 1.255460e-03 3.349429e-07 9.616624e-05 1.128897e-03 5.151097e-09 -3.870216e-07 1.265625e-04
108            3.384783e-07 9.536747e-05 1.256155e-03 3.330788e-07 9.575025e-05 1.129593e-03 5.399452e-09 -3.827722e-07 1.265621e-04
109            3.369546e-07 9.498006e-05 1.256800e-03 3.313125e-07 9.535879e-05 1.130238e-03 5.642030e-09 -3.787224e-07 1.265621e-04
110            3.355677e-07 9.461578e-05 1.257401e-03 3.296889e-07 9.499066e-05 1.130839e-03 5.878800e-09 -3.748764e-07 1.265621e-04
111            3.343326e-07 9.427392e-05 1.257965e-03 3.282230e-07 9.464516e-05 1.131403e-03 6.109608e-09 -3.712379e-07 1.265617e-04
112            3.332383e-07 9.395419e-05 1.258494e-03 3.269049e-07 9.432194e-05 1.131933e-03 6.333345e-09 -3.677504e-07 1.265614e-04
113            3.322636e-07 9.365606e-05 1.258992e-03 3.257131e-07 9.402056e-05 1.132432e-03 6.550498e-09 -3.644973e-07 1.265605e-04
114            3.313858e-07 9.337876e-05 1.259461e-03 3.246250e-07 9.374023e-05 1.132902e-03 6.760804e-09 -3.614659e-07 1.265588e-04
115            3.305815e-07 9.312167e-05 1.259903e-03 3.236176e-07 9.348031e-05 1.133347e-03 6.963826e-09 -3.586446e-07 1.265565e-04
116            3.298175e-07 9.288444e-05 1.260321e-03 3.226586e-07 9.324048e-05 1.133768e-03 7.158887e-09 -3.560407e-07 1.265535e-04
117            3.290570e-07 9.266822e-05 1.260715e-03 3.217115e-07 9.302186e-05 1.134165e-03 7.345516e-09 -3.536397e-07 1.265499e-04
118            3.282742e-07 9.247414e-05 1.261084e-03 3.207510e-07 9.282559e-05 1.134538e-03 7.523157e-09 -3.514481e-07 1.265460e-04
119            3.274740e-07 9.230230e-05 1.261429e-03 3.197825e-07 9.265175e-05 1.134887e-03 7.691459e-09 -3.494515e-07 1.265418e-04
120            3.266820e-07 9.215031e-05 1.261754e-03 3.188320e-07 9.249797e-05 1.135217e-03 7.850031e-09 -3.476529e-07 1.265374e-04
121            3.259284e-07 9.201487e-05 1.262064e-03 3.179296e-07 9.236091e-05 1.135531e-03 7.998785e-09 -3.460388e-07 1.265331e-04
122            3.252331e-07 9.189261e-05 1.262365e-03 3.170954e-07 9.223721e-05 1.135836e-03 8.137643e-09 -3.445998e-07 1.265288e-04
123            3.246026e-07 9.178070e-05 1.262661e-03 3.163360e-07 9.212403e-05 1.136136e-03 8.266565e-09 -3.433347e-07 1.265248e-04
124            3.240379e-07 9.167771e-05 1.262955e-03 3.156522e-07 9.201993e-05 1.136434e-03 8.385785e-09 -3.422265e-07 1.265211e-04
125            3.235361e-07 9.158298e-05 1.263247e-03 3.150406e-07 9.192425e-05 1.136730e-03 8.495479e-09 -3.412647e-07 1.265179e-04
126            3.230908e-07 9.149595e-05 1.263539e-03 3.144950e-07 9.183639e-05 1.137024e-03 8.595842e-09 -3.404436e-07 1.265151e-04
127            3.226982e-07 9.141670e-05 1.263831e-03 3.140109e-07 9.175645e-05 1.137318e-03 8.687322e-09 -3.397444e-07 1.265128e-04
128            3.223520e-07 9.134580e-05 1.264120e-03 3.135818e-07 9.168496e-05 1.137609e-03 8.770292e-09 -3.391551e-07 1.265111e-04
129            3.220425e-07 9.128399e-05 1.264404e-03 3.131973e-07 9.162266e-05 1.137894e-03 8.845155e-09 -3.386638e-07 1.265098e-04
130            3.217579e-07 9.123125e-05 1.264677e-03 3.128456e-07 9.156951e-05 1.138167e-03 8.912333e-09 -3.382597e-07 1.265091e-04
131            3.214907e-07 9.118629e-05 1.264935e-03 3.125185e-07 9.152422e-05 1.138426e-03 8.972257e-09 -3.379323e-07 1.265089e-04
132            3.212369e-07 9.114705e-05 1.265179e-03 3.122116e-07 9.148473e-05 1.138670e-03 9.025308e-09 -3.376769e-07 1.265091e-04
133            3.209993e-07 9.111223e-05 1.265411e-03 3.119272e-07 9.144970e-05 1.138901e-03 9.072123e-09 -3.374766e-07 1.265097e-04
134            3.207816e-07 9.108115e-05 1.265634e-03 3.116685e-07 9.141847e-05 1.139124e-03 9.113189e-09 -3.373219e-07 1.265106e-04
135            3.205866e-07 9.105344e-05 1.265850e-03 3.114376e-07 9.139065e-05 1.139338e-03 9.148994e-09 -3.372039e-07 1.265118e-04
136            3.204161e-07 9.102888e-05 1.266059e-03 3.112361e-07 9.136600e-05 1.139546e-03 9.180013e-09 -3.371144e-07 1.265132e-04
