/*--------------------------------*- C++ -*----------------------------------*\
| =========                 |                                                 |
| \\      /  F ield         | OpenFOAM: The Open Source CFD Toolbox           |
|  \\    /   O peration     | Version:  2512                                  |
|   \\  /    A nd           | Website:  www.openfoam.com                      |
|    \\/     M anipulation  |                                                 |
\*---------------------------------------------------------------------------*/
FoamFile
{
    version     2.0;
    format      ascii;
    arch        "LSB;label=32;scalar=64";
    class       volScalarField;
    location    "163";
    object      p;
}
// * * * * * * * * * * * * * * * * * * * * * * * * * * * * * * * * * * * * * //

dimensions      [0 2 -2 0 0 0 0];

internalField   nonuniform List<scalar> 
335663
(
0.000191632
0.000191399
0.000190804
0.000189849
0.00018852
0.000186765
0.000184511
0.000181673
0.000178146
0.000173808
0.000168519
0.000162118
0.000154427
0.000145256
0.00013441
0.000121697
0.000106947
9.00252e-05
7.08635e-05
4.94842e-05
2.60325e-05
8.04771e-07
-2.57286e-05
-5.29145e-05
-7.99275e-05
-0.000105807
-0.000129524
-0.000150072
-0.000166571
-0.000178381
-0.000185175
-0.000186985
-0.00018418
-0.000177412
-0.000167507
-0.000155364
-0.000141853
-0.000127746
-0.000113677
-0.000100126
-8.74299e-05
-7.57982e-05
-6.53351e-05
-5.60655e-05
-4.79564e-05
-4.09371e-05
-3.49138e-05
-2.9782e-05
-2.54347e-05
-2.17683e-05
-1.8686e-05
-1.61002e-05
-1.39328e-05
-1.21158e-05
-1.05905e-05
-9.30695e-06
-8.22288e-06
-7.30294e-06
-6.5177e-06
-5.8428e-06
-5.25817e-06
-4.74736e-06
-4.2969e-06
-3.8958e-06
-3.5351e-06
-3.20755e-06
-2.90725e-06
-2.62942e-06
-2.37021e-06
-2.12645e-06
-1.89558e-06
-1.67547e-06
-1.46436e-06
-1.26076e-06
-1.06339e-06
-8.7113e-07
-6.82984e-07
-4.9811e-07
-3.14868e-07
-1.42681e-07
0.000191701
0.000191471
0.000190881
0.000189935
0.000188618
0.000186879
0.000184644
0.000181829
0.00017833
0.000174024
0.000168771
0.00016241
0.000154761
0.000145634
0.00013483
0.000122155
0.000107433
9.05256e-05
7.13572e-05
4.99439e-05
2.64245e-05
1.09079e-06
-2.55886e-05
-5.29575e-05
-8.01822e-05
-0.000106288
-0.000130224
-0.00015096
-0.000167598
-0.000179477
-0.000186263
-0.000187992
-0.000185048
-0.000178101
-0.000168003
-0.000155672
-0.000141994
-0.000127748
-0.000113571
-9.99446e-05
-8.72011e-05
-7.55445e-05
-6.50745e-05
-5.58108e-05
-4.77165e-05
-4.07171e-05
-3.47164e-05
-2.9608e-05
-2.52834e-05
-2.16383e-05
-1.85754e-05
-1.60068e-05
-1.38545e-05
-1.20506e-05
-1.05364e-05
-9.26227e-06
-8.18608e-06
-7.27271e-06
-6.4929e-06
-5.82247e-06
-5.24151e-06
-4.7337e-06
-4.28568e-06
-3.88656e-06
-3.52747e-06
-3.20123e-06
-2.90198e-06
-2.62501e-06
-2.36649e-06
-2.1233e-06
-1.8929e-06
-1.67319e-06
-1.46241e-06
-1.2591e-06
-1.06199e-06
-8.69979e-07
-6.82074e-07
-4.97439e-07
-3.14506e-07
-1.42319e-07
0.000191838
0.000191612
0.000191033
0.000190105
0.000188812
0.000187103
0.000184907
0.000182138
0.000178693
0.000174451
0.000169269
0.000162986
0.000155421
0.000146381
0.000135661
0.000123062
0.000108397
9.15189e-05
7.23388e-05
5.08595e-05
2.72074e-05
1.66476e-06
-2.53034e-05
-5.30356e-05
-8.0681e-05
-0.000107235
-0.000131609
-0.000152724
-0.000169638
-0.000181655
-0.000188427
-0.000189995
-0.000186772
-0.000179471
-0.000168988
-0.000156282
-0.000142269
-0.000127747
-0.000113359
-9.95836e-05
-8.67459e-05
-7.50408e-05
-6.45574e-05
-5.53058e-05
-4.72408e-05
-4.02811e-05
-3.43253e-05
-2.92631e-05
-2.49836e-05
-2.13807e-05
-1.83563e-05
-1.58219e-05
-1.36996e-05
-1.19214e-05
-1.04293e-05
-9.17381e-06
-8.11324e-06
-7.21288e-06
-6.44383e-06
-5.78228e-06
-5.2086e-06
-4.70674e-06
-4.26357e-06
-3.8684e-06
-3.51252e-06
-3.18886e-06
-2.89172e-06
-2.61645e-06
-2.35931e-06
-2.11726e-06
-1.88779e-06
-1.66886e-06
-1.45875e-06
-1.25602e-06
-1.05944e-06
-8.6792e-07
-6.80489e-07
-4.96324e-07
-3.13873e-07
-1.42091e-07
0.000192039
0.000191819
0.000191257
0.000190354
0.000189097
0.000187433
0.000185294
0.000182592
0.000179228
0.000175079
0.000170003
0.000163837
0.000156397
0.000147485
0.000136891
0.000124405
0.000109827
9.29947e-05
7.37999e-05
5.22258e-05
2.83796e-05
2.5291e-06
-2.48666e-05
-5.31385e-05
-8.14114e-05
-0.000108637
-0.000133666
-0.00015535
-0.000172678
-0.000184903
-0.000191652
-0.000192977
-0.000189334
-0.000181499
-0.000170439
-0.000157174
-0.000142665
-0.000127734
-0.000113034
-9.90392e-05
-8.60646e-05
-7.42897e-05
-6.37884e-05
-5.45564e-05
-4.65361e-05
-3.96361e-05
-3.37474e-05
-2.8754e-05
-2.45414e-05
-2.1001e-05
-1.80334e-05
-1.55495e-05
-1.34714e-05
-1.17314e-05
-1.02717e-05
-9.04363e-06
-8.00605e-06
-7.12481e-06
-6.37159e-06
-5.72306e-06
-5.16007e-06
-4.66694e-06
-4.23088e-06
-3.84148e-06
-3.49028e-06
-3.17042e-06
-2.87633e-06
-2.60355e-06
-2.34843e-06
-2.10803e-06
-1.87992e-06
-1.66213e-06
-1.45299e-06
-1.25111e-06
-1.0553e-06
-8.64499e-07
-6.77766e-07
-4.94294e-07
-3.12547e-07
-1.41447e-07
0.0001923
0.000192088
0.000191547
0.000190678
0.000189466
0.000187862
0.000185795
0.000183183
0.000179924
0.000175896
0.000170958
0.000164944
0.000157668
0.000148926
0.000138498
0.000126161
0.000111702
9.49328e-05
7.57238e-05
5.40307e-05
2.99353e-05
3.68532e-06
-2.4269e-05
-5.32501e-05
-8.23508e-05
-0.000110466
-0.000136365
-0.000158807
-0.000176687
-0.000189188
-0.000195905
-0.000196903
-0.000192698
-0.000184152
-0.000172326
-0.000158322
-0.000143159
-0.000127694
-0.000112588
-9.83109e-05
-8.51612e-05
-7.32991e-05
-6.27779e-05
-5.35744e-05
-4.56145e-05
-3.8794e-05
-3.29938e-05
-2.8091e-05
-2.39661e-05
-2.05075e-05
-1.7614e-05
-1.5196e-05
-1.31753e-05
-1.14849e-05
-1.00674e-05
-8.87499e-06
-7.86726e-06
-7.01085e-06
-6.27819e-06
-5.64658e-06
-5.09747e-06
-4.61568e-06
-4.18887e-06
-3.80699e-06
-3.46188e-06
-3.14694e-06
-2.85685e-06
-2.5873e-06
-2.33481e-06
-2.09657e-06
-1.87025e-06
-1.65394e-06
-1.44608e-06
-1.24531e-06
-1.0505e-06
-8.60641e-07
-6.74815e-07
-4.92236e-07
-3.11372e-07
-1.41055e-07
0.000192614
0.000192413
0.000191897
0.000191069
0.000189912
0.000188379
0.000186401
0.000183896
0.000180764
0.000176884
0.000172113
0.000166285
0.00015921
0.000150675
0.000140452
0.000128302
0.000113991
9.7307e-05
7.80883e-05
5.62583e-05
3.18665e-05
5.13467e-06
-2.34995e-05
-5.33494e-05
-8.34703e-05
-0.000112687
-0.000139668
-0.000163054
-0.000181624
-0.00019447
-0.000201143
-0.00020173
-0.00019682
-0.000187386
-0.000174608
-0.000159691
-0.000143728
-0.000127611
-0.000112015
-9.73984e-05
-8.40415e-05
-7.20792e-05
-6.1539e-05
-5.23743e-05
-4.44912e-05
-3.77697e-05
-3.20789e-05
-2.72871e-05
-2.32693e-05
-1.99102e-05
-1.71068e-05
-1.47687e-05
-1.28177e-05
-1.11872e-05
-9.82079e-06
-8.67135e-06
-7.69962e-06
-6.87315e-06
-6.16524e-06
-5.554e-06
-5.02157e-06
-4.55342e-06
-4.13771e-06
-3.76483e-06
-3.42702e-06
-3.11799e-06
-2.83267e-06
-2.56699e-06
-2.31765e-06
-2.08199e-06
-1.8578e-06
-1.64328e-06
-1.43693e-06
-1.2375e-06
-1.0439e-06
-8.55175e-07
-6.70446e-07
-4.88953e-07
-3.09182e-07
-1.39935e-07
0.000192975
0.000192785
0.000192299
0.000191517
0.000190424
0.000188973
0.000187097
0.000184715
0.00018173
0.000178021
0.000173445
0.000167833
0.000160991
0.000152699
0.000142718
0.00013079
0.000116659
0.000100082
8.08622e-05
5.88843e-05
3.41585e-05
6.87417e-06
-2.25481e-05
-5.34136e-05
-8.47351e-05
-0.000115255
-0.000143523
-0.000168037
-0.000187432
-0.000200688
-0.000207306
-0.000207395
-0.000201637
-0.000191141
-0.000177233
-0.000161241
-0.000144339
-0.000127467
-0.000111305
-9.63035e-05
-8.2715e-05
-7.06446e-05
-6.00896e-05
-5.09758e-05
-4.31863e-05
-3.65828e-05
-3.10208e-05
-2.63592e-05
-2.24661e-05
-1.92227e-05
-1.65237e-05
-1.42779e-05
-1.24073e-05
-1.08459e-05
-9.53821e-06
-8.43827e-06
-7.50796e-06
-6.71591e-06
-6.03644e-06
-5.4486e-06
-4.93536e-06
-4.48288e-06
-4.07993e-06
-3.71742e-06
-3.388e-06
-3.08576e-06
-2.80594e-06
-2.54472e-06
-2.29901e-06
-2.06631e-06
-1.84457e-06
-1.63211e-06
-1.42752e-06
-1.22962e-06
-1.03741e-06
-8.49979e-07
-6.66502e-07
-4.86238e-07
-3.07672e-07
-1.3948e-07
0.000193373
0.000193196
0.000192742
0.000192012
0.000190989
0.000189629
0.000187866
0.000185623
0.000182801
0.000179282
0.000174923
0.000169553
0.000162974
0.000154957
0.00014525
0.000133578
0.000119657
0.000103212
8.40052e-05
6.18762e-05
3.67896e-05
8.89586e-06
-2.14068e-05
-5.34178e-05
-8.61041e-05
-0.000118116
-0.000147865
-0.000173683
-0.000194033
-0.000207763
-0.000214313
-0.000213819
-0.000207073
-0.000195349
-0.000180142
-0.000162923
-0.000144962
-0.000127243
-0.000110456
-9.50328e-05
-8.11961e-05
-6.90154e-05
-5.8453e-05
-4.94035e-05
-4.17241e-05
-3.52566e-05
-2.98412e-05
-2.53265e-05
-2.15737e-05
-1.84597e-05
-1.58771e-05
-1.37341e-05
-1.19528e-05
-1.04679e-05
-9.22531e-06
-8.18011e-06
-7.29553e-06
-6.54145e-06
-5.89334e-06
-5.33128e-06
-4.83916e-06
-4.40391e-06
-4.01498e-06
-3.66384e-06
-3.34364e-06
-3.04884e-06
-2.77505e-06
-2.51871e-06
-2.27698e-06
-2.04754e-06
-1.8285e-06
-1.6183e-06
-1.41564e-06
-1.21944e-06
-1.02877e-06
-8.42794e-07
-6.60722e-07
-4.81847e-07
-3.04686e-07
-1.37895e-07
0.0001938
0.000193637
0.000193218
0.000192543
0.000191596
0.000190333
0.000188692
0.000186597
0.000183951
0.000180638
0.000176515
0.000171408
0.000165115
0.000157401
0.000147998
0.000136612
0.00012293
0.000106642
8.74658e-05
6.51902e-05
3.97278e-05
1.11835e-05
-2.0073e-05
-5.33384e-05
-8.75328e-05
-0.000121206
-0.000152615
-0.000179899
-0.000201328
-0.000215593
-0.00022206
-0.000220898
-0.000213032
-0.000199923
-0.000183264
-0.000164686
-0.000145562
-0.000126924
-0.000109466
-9.35976e-05
-7.95049e-05
-6.72173e-05
-5.66579e-05
-4.7687e-05
-4.0134e-05
-3.38187e-05
-2.85657e-05
-2.42122e-05
-2.06125e-05
-1.76392e-05
-1.51829e-05
-1.3151e-05
-1.14661e-05
-1.00637e-05
-8.89113e-06
-7.90481e-06
-7.06939e-06
-6.35609e-06
-5.74165e-06
-5.20727e-06
-4.73781e-06
-4.32106e-06
-3.94719e-06
-3.60827e-06
-3.29795e-06
-3.01115e-06
-2.74382e-06
-2.49272e-06
-2.25526e-06
-2.02932e-06
-1.81316e-06
-1.60537e-06
-1.40476e-06
-1.21036e-06
-1.02132e-06
-8.36874e-07
-6.56276e-07
-4.78849e-07
-3.031e-07
-1.37527e-07
0.000194245
0.000194096
0.000193714
0.000193096
0.000192229
0.000191068
0.000189555
0.000187615
0.000185155
0.000182059
0.000178183
0.000173356
0.000167369
0.000159978
0.000150902
0.000139827
0.000126411
0.000110305
9.11805e-05
6.877e-05
4.29291e-05
1.37104e-05
-1.85512e-05
-5.31547e-05
-8.89738e-05
-0.000124451
-0.000157676
-0.000186574
-0.000209193
-0.000224046
-0.000230415
-0.000228508
-0.000219399
-0.000204765
-0.000186521
-0.000166475
-0.000146108
-0.000126499
-0.000108342
-9.20165e-05
-7.76688e-05
-6.52827e-05
-5.4739e-05
-4.58614e-05
-3.84493e-05
-3.23001e-05
-2.72218e-05
-2.30407e-05
-1.96037e-05
-1.67792e-05
-1.44559e-05
-1.25408e-05
-1.09568e-05
-9.64086e-06
-8.54136e-06
-7.61643e-06
-6.83219e-06
-6.16132e-06
-5.58186e-06
-5.07621e-06
-4.63026e-06
-4.2327e-06
-3.87442e-06
-3.54816e-06
-3.24808e-06
-2.96955e-06
-2.70892e-06
-2.46326e-06
-2.23022e-06
-2.00791e-06
-1.79477e-06
-1.58951e-06
-1.39107e-06
-1.19857e-06
-1.01127e-06
-8.28465e-07
-6.49464e-07
-4.73619e-07
-2.99478e-07
-1.35545e-07
0.000194698
0.000194564
0.000194218
0.00019366
0.000192873
0.000191817
0.000190434
0.000188653
0.000186383
0.000183509
0.00017989
0.000175351
0.000169681
0.000162628
0.000153897
0.000143152
0.000130024
0.000114124
9.50731e-05
7.25459e-05
4.63358e-05
1.6437e-05
-1.68568e-05
-5.28523e-05
-9.03793e-05
-0.00012777
-0.000162935
-0.000193568
-0.000217471
-0.000232959
-0.000239217
-0.000236495
-0.000226038
-0.000209764
-0.00018983
-0.000168235
-0.000146573
-0.000125965
-0.000107097
-9.03165e-05
-7.57231e-05
-6.32516e-05
-5.27379e-05
-4.39672e-05
-3.67086e-05
-3.07364e-05
-2.58422e-05
-2.1841e-05
-1.85728e-05
-1.59021e-05
-1.37158e-05
-1.19206e-05
-1.04402e-05
-9.21264e-06
-8.18788e-06
-7.32565e-06
-6.59365e-06
-5.96605e-06
-5.42226e-06
-4.94589e-06
-4.5239e-06
-4.14588e-06
-3.80349e-06
-3.49011e-06
-3.20044e-06
-2.93032e-06
-2.67648e-06
-2.43632e-06
-2.20776e-06
-1.98911e-06
-1.77898e-06
-1.57623e-06
-1.37993e-06
-1.18931e-06
-1.0037e-06
-8.22495e-07
-6.45041e-07
-4.70716e-07
-2.98053e-07
-1.3537e-07
0.000195149
0.000195028
0.00019472
0.00019422
0.000193513
0.000192561
0.000191309
0.000189686
0.000187606
0.000184956
0.000181594
0.000177346
0.000171997
0.000165287
0.00015691
0.000146509
0.000133685
0.00011801
9.90547e-05
7.64339e-05
4.98749e-05
1.9309e-05
-1.50174e-05
-5.24249e-05
-9.17038e-05
-0.000131076
-0.000168266
-0.000200721
-0.000225979
-0.000242134
-0.000248269
-0.000244679
-0.000232793
-0.000214795
-0.000193104
-0.000169915
-0.000146936
-0.000125324
-0.000105754
-8.85335e-05
-7.37109e-05
-6.11703e-05
-5.07007e-05
-4.20487e-05
-3.49526e-05
-2.9164e-05
-2.44584e-05
-2.064e-05
-1.75425e-05
-1.50265e-05
-1.29775e-05
-1.13021e-05
-9.92493e-06
-8.78528e-06
-7.83473e-06
-7.03466e-06
-6.35437e-06
-5.76956e-06
-5.261e-06
-4.81355e-06
-4.4152e-06
-4.05646e-06
-3.72975e-06
-3.42906e-06
-3.14967e-06
-2.88787e-06
-2.64076e-06
-2.40607e-06
-2.18197e-06
-1.96699e-06
-1.7599e-06
-1.55971e-06
-1.36561e-06
-1.17693e-06
-9.93105e-07
-8.13587e-07
-6.37784e-07
-4.65101e-07
-2.94117e-07
-1.33172e-07
0.000195585
0.000195479
0.000195206
0.000194763
0.000194135
0.000193283
0.000192157
0.00019069
0.000188795
0.000186363
0.000183253
0.000179291
0.000174259
0.00016789
0.000159867
0.000149812
0.000137301
0.000121865
0.000103025
8.03362e-05
5.34585e-05
2.22566e-05
-1.30752e-05
-5.18775e-05
-9.29066e-05
-0.000134278
-0.000173528
-0.000207849
-0.0002345
-0.000251343
-0.000257345
-0.000252853
-0.000239493
-0.000219729
-0.000196255
-0.000171468
-0.000147184
-0.000124592
-0.000104348
-8.67134e-05
-7.16846e-05
-5.9093e-05
-4.86811e-05
-4.01565e-05
-3.3228e-05
-2.76251e-05
-2.31081e-05
-1.94714e-05
-1.65422e-05
-1.41784e-05
-1.22639e-05
-1.07057e-05
-9.42922e-06
-8.37521e-06
-7.49686e-06
-6.75719e-06
-6.12713e-06
-5.58383e-06
-5.10945e-06
-4.69002e-06
-4.31458e-06
-3.97449e-06
-3.66293e-06
-3.3745e-06
-3.10501e-06
-2.85118e-06
-2.61051e-06
-2.38102e-06
-2.16115e-06
-1.94961e-06
-1.74534e-06
-1.54749e-06
-1.35537e-06
-1.16843e-06
-9.86184e-07
-8.08158e-07
-6.33807e-07
-4.62555e-07
-2.9296e-07
-1.33172e-07
0.000195998
0.000195905
0.000195666
0.000195277
0.000194722
0.000193966
0.000192959
0.000191639
0.00018992
0.000187695
0.000184826
0.000181137
0.000176409
0.00017037
0.000162689
0.000152975
0.000140774
0.000125583
0.000106874
8.41437e-05
5.69846e-05
2.51947e-05
-1.10874e-05
-5.12275e-05
-9.39549e-05
-0.000137285
-0.000178571
-0.000214748
-0.000242791
-0.000260322
-0.000266188
-0.000260785
-0.000245947
-0.000224427
-0.000199197
-0.000172854
-0.000147316
-0.000123795
-0.000102922
-8.49096e-05
-6.97018e-05
-5.70774e-05
-4.67332e-05
-3.83401e-05
-3.15785e-05
-2.61575e-05
-2.18234e-05
-1.83613e-05
-1.55932e-05
-1.33742e-05
-1.15875e-05
-1.01401e-05
-8.95871e-06
-7.98541e-06
-7.17499e-06
-6.49208e-06
-5.90915e-06
-5.40479e-06
-4.96244e-06
-4.56927e-06
-4.2153e-06
-3.89272e-06
-3.59539e-06
-3.31849e-06
-3.05833e-06
-2.81205e-06
-2.5775e-06
-2.35301e-06
-2.13722e-06
-1.92905e-06
-1.72757e-06
-1.53207e-06
-1.34198e-06
-1.15683e-06
-9.76238e-07
-7.99794e-07
-6.26997e-07
-4.57294e-07
-2.89281e-07
-1.31133e-07
0.000196378
0.000196297
0.000196089
0.000195749
0.000195261
0.000194592
0.000193696
0.000192509
0.000190952
0.000188918
0.000186271
0.000182836
0.00017839
0.000172658
0.000165301
0.000155909
0.000144006
0.000129056
0.000110487
8.77384e-05
6.03406e-05
2.80252e-05
-9.12517e-06
-5.05056e-05
-9.48256e-05
-0.00014001
-0.000183239
-0.0002212
-0.000250589
-0.000268786
-0.000274517
-0.000268227
-0.000251958
-0.000228751
-0.00020185
-0.000174044
-0.000147342
-0.000122969
-0.000101528
-8.31845e-05
-6.78278e-05
-5.51877e-05
-4.49181e-05
-3.66556e-05
-3.00549e-05
-2.48065e-05
-2.06442e-05
-1.73452e-05
-1.47269e-05
-1.2642e-05
-1.09732e-05
-9.62801e-06
-8.53403e-06
-7.63485e-06
-6.88674e-06
-6.25584e-06
-5.71604e-06
-5.24728e-06
-4.83419e-06
-4.46498e-06
-4.13057e-06
-3.82389e-06
-3.53945e-06
-3.27295e-06
-3.02116e-06
-2.78161e-06
-2.55248e-06
-2.33235e-06
-2.1201e-06
-1.91479e-06
-1.71564e-06
-1.52205e-06
-1.33356e-06
-1.14981e-06
-9.70496e-07
-7.95264e-07
-6.23655e-07
-4.55131e-07
-2.88266e-07
-1.31089e-07
0.000196715
0.000196645
0.000196464
0.000196167
0.000195739
0.000195147
0.000194348
0.00019328
0.000191866
0.000190002
0.000187552
0.000184342
0.000180149
0.000174693
0.000167627
0.000158528
0.0001469
0.000132176
0.000113746
9.09994e-05
6.34077e-05
3.06415e-05
-7.27057e-06
-4.97544e-05
-9.55065e-05
-0.000142374
-0.000187379
-0.000226983
-0.000257617
-0.000276432
-0.000282036
-0.000274922
-0.000257327
-0.000232568
-0.000204146
-0.00017502
-0.00014728
-0.000122158
-0.000100226
-8.16019e-05
-6.61267e-05
-5.34843e-05
-4.32904e-05
-3.51509e-05
-2.86978e-05
-2.36058e-05
-1.95979e-05
-1.64445e-05
-1.39593e-05
-1.19931e-05
-1.04285e-05
-9.17328e-06
-8.15619e-06
-7.32209e-06
-6.62862e-06
-6.04329e-06
-5.54128e-06
-5.1037e-06
-4.71625e-06
-4.36806e-06
-4.05085e-06
-3.75819e-06
-3.48515e-06
-3.2279e-06
-2.98359e-06
-2.75012e-06
-2.52593e-06
-2.30984e-06
-2.10091e-06
-1.89834e-06
-1.70147e-06
-1.5098e-06
-1.32296e-06
-1.14068e-06
-9.6273e-07
-7.88808e-07
-6.1849e-07
-4.51249e-07
-2.85678e-07
-1.29789e-07
0.000197002
0.000196941
0.000196783
0.000196522
0.000196144
0.000195617
0.000194899
0.000193932
0.000192638
0.000190917
0.000188634
0.000185615
0.000181637
0.000176416
0.000169598
0.000160752
0.000149363
0.000134841
0.00011654
9.38086e-05
6.60679e-05
3.29347e-05
-5.6112e-06
-4.90252e-05
-9.59965e-05
-0.000144308
-0.00019085
-0.000231882
-0.000263605
-0.000282961
-0.000288454
-0.000280616
-0.000261864
-0.000235757
-0.000206024
-0.000175773
-0.000147158
-0.000121413
-9.90777e-05
-8.02297e-05
-6.46661e-05
-5.20317e-05
-4.19093e-05
-3.38795e-05
-2.75553e-05
-2.25982e-05
-1.87224e-05
-1.5693e-05
-1.33206e-05
-1.1455e-05
-9.97819e-06
-8.7988e-06
-7.84638e-06
-7.06694e-06
-6.41931e-06
-5.87215e-06
-5.40173e-06
-4.99018e-06
-4.62408e-06
-4.29334e-06
-3.99035e-06
-3.70923e-06
-3.4455e-06
-3.19573e-06
-2.95742e-06
-2.72875e-06
-2.5084e-06
-2.29539e-06
-2.08893e-06
-1.88834e-06
-1.69305e-06
-1.50266e-06
-1.31687e-06
-1.13549e-06
-9.5836e-07
-7.85223e-07
-6.15682e-07
-4.49222e-07
-2.84433e-07
-1.29292e-07
0.000197233
0.000197178
0.000197038
0.000196806
0.000196467
0.000195991
0.000195337
0.000194448
0.000193249
0.00019164
0.000189488
0.00018662
0.000182811
0.000177776
0.000171157
0.000162513
0.000151316
0.000136958
0.000118767
9.60581e-05
6.82117e-05
3.48013e-05
-4.23305e-06
-4.83725e-05
-9.63029e-05
-0.000145759
-0.000193525
-0.000235703
-0.000268301
-0.000288095
-0.000293498
-0.000285078
-0.000265395
-0.000238212
-0.000207438
-0.000176304
-0.000147007
-0.000120782
-9.8141e-05
-7.91268e-05
-6.3502e-05
-5.08804e-05
-4.0819e-05
-3.28786e-05
-2.66575e-05
-2.18073e-05
-1.80356e-05
-1.51035e-05
-1.28194e-05
-1.1032e-05
-9.62363e-06
-8.50314e-06
-7.60092e-06
-6.86389e-06
-6.25182e-06
-5.73429e-06
-5.28843e-06
-4.89714e-06
-4.54771e-06
-4.23067e-06
-3.93888e-06
-3.66692e-06
-3.41065e-06
-3.16694e-06
-2.93355e-06
-2.70888e-06
-2.49181e-06
-2.28151e-06
-2.07727e-06
-1.87853e-06
-1.68478e-06
-1.49568e-06
-1.311e-06
-1.13061e-06
-9.54393e-07
-7.82135e-07
-6.13455e-07
-4.4784e-07
-2.83857e-07
-1.29381e-07
0.000197401
0.000197352
0.000197224
0.000197012
0.0001967
0.00019626
0.00019565
0.000194816
0.000193684
0.000192153
0.000190092
0.000187329
0.000183639
0.000178734
0.000172254
0.000163753
0.000152693
0.000138454
0.000120345
9.76582e-05
6.97465e-05
3.61526e-05
-3.21193e-06
-4.78472e-05
-9.64382e-05
-0.000146687
-0.000195306
-0.000238284
-0.000271496
-0.000291598
-0.00029694
-0.000288111
-0.000267779
-0.000239848
-0.000208358
-0.000176618
-0.00014686
-0.000120312
-9.74691e-05
-7.83481e-05
-6.26877e-05
-5.00801e-05
-4.00648e-05
-3.21889e-05
-2.60411e-05
-2.12661e-05
-1.75673e-05
-1.47028e-05
-1.248e-05
-1.07469e-05
-9.38573e-06
-8.30588e-06
-7.43823e-06
-6.73035e-06
-6.14266e-06
-5.64539e-06
-5.21625e-06
-4.83871e-06
-4.50052e-06
-4.19263e-06
-3.90827e-06
-3.64231e-06
-3.39083e-06
-3.15095e-06
-2.92057e-06
-2.69829e-06
-2.48309e-06
-2.27426e-06
-2.07118e-06
-1.87333e-06
-1.68026e-06
-1.49166e-06
-1.30738e-06
-1.12731e-06
-9.51364e-07
-7.79369e-07
-6.10954e-07
-4.45618e-07
-2.81966e-07
-1.28016e-07
0.000197504
0.000197458
0.000197337
0.000197135
0.000196838
0.000196417
0.000195832
0.000195027
0.00019393
0.000192441
0.00019043
0.000187723
0.000184096
0.000179262
0.000172857
0.000164433
0.000153448
0.000139274
0.000121213
9.85438e-05
7.06047e-05
3.69228e-05
-2.60522e-06
-4.74897e-05
-9.64155e-05
-0.000147068
-0.000196123
-0.000239512
-0.00027304
-0.000293301
-0.000298612
-0.000289577
-0.000268916
-0.000240609
-0.000208761
-0.000176722
-0.000146738
-0.000120036
-9.70973e-05
-7.79283e-05
-6.22547e-05
-4.96581e-05
-3.96692e-05
-3.18283e-05
-2.57194e-05
-2.09839e-05
-1.73229e-05
-1.44936e-05
-1.23023e-05
-1.05972e-05
-9.26036e-06
-8.20145e-06
-7.35163e-06
-6.65881e-06
-6.08377e-06
-5.59706e-06
-5.17669e-06
-4.80642e-06
-4.47425e-06
-4.17133e-06
-3.89108e-06
-3.6285e-06
-3.3798e-06
-3.14218e-06
-2.91368e-06
-2.69293e-06
-2.47902e-06
-2.27125e-06
-2.06907e-06
-1.87196e-06
-1.67952e-06
-1.49146e-06
-1.30762e-06
-1.12794e-06
-9.52358e-07
-7.80692e-07
-6.12584e-07
-4.47519e-07
-2.84036e-07
-1.29936e-07
0.00019754
0.000197494
0.000197374
0.000197174
0.000196878
0.00019646
0.000195877
0.000195076
0.000193983
0.000192499
0.000190493
0.000187792
0.000184172
0.000179345
0.000172948
0.000164532
0.000153557
0.000139392
0.00012134
9.86803e-05
7.07501e-05
3.70765e-05
-2.44422e-06
-4.73225e-05
-9.62432e-05
-0.000146892
-0.000195943
-0.000239328
-0.000272855
-0.000293115
-0.000298429
-0.000289402
-0.000268755
-0.000240467
-0.00020864
-0.000176623
-0.000146659
-0.000119973
-9.70484e-05
-7.78904e-05
-6.22256e-05
-4.96358e-05
-3.96523e-05
-3.18156e-05
-2.571e-05
-2.0977e-05
-1.7318e-05
-1.44904e-05
-1.23004e-05
-1.05964e-05
-9.26037e-06
-8.20212e-06
-7.35281e-06
-6.66039e-06
-6.08563e-06
-5.59909e-06
-5.17884e-06
-4.8086e-06
-4.47642e-06
-4.17344e-06
-3.89309e-06
-3.63036e-06
-3.38148e-06
-3.14365e-06
-2.9149e-06
-2.69389e-06
-2.4797e-06
-2.27166e-06
-2.06919e-06
-1.87179e-06
-1.67906e-06
-1.4907e-06
-1.30656e-06
-1.12659e-06
-9.50707e-07
-7.7875e-07
-6.10357e-07
-4.45028e-07
-2.81388e-07
-1.2758e-07
0.000197508
0.00019746
0.000197335
0.000197127
0.00019682
0.000196387
0.000195786
0.000194963
0.000193842
0.000192326
0.000190281
0.000187535
0.000183865
0.000178982
0.000172526
0.00016405
0.000153017
0.000138805
0.000120725
9.80661e-05
7.01811e-05
3.66118e-05
-2.73093e-06
-4.73477e-05
-9.59235e-05
-0.00014616
-0.000194768
-0.000237737
-0.000270943
-0.000291044
-0.000296395
-0.000287591
-0.000267299
-0.000239424
-0.000207997
-0.000176321
-0.00014662
-0.000120122
-9.73193e-05
-7.82308e-05
-6.25959e-05
-5.00082e-05
-4.00084e-05
-3.21445e-05
-2.6006e-05
-2.12384e-05
-1.75453e-05
-1.46856e-05
-1.24665e-05
-1.07365e-05
-9.37787e-06
-8.30016e-06
-7.43431e-06
-6.72796e-06
-6.14158e-06
-5.64543e-06
-5.21726e-06
-4.84056e-06
-4.50312e-06
-4.1959e-06
-3.91214e-06
-3.64667e-06
-3.3956e-06
-3.15604e-06
-2.92592e-06
-2.70382e-06
-2.48877e-06
-2.28005e-06
-2.07704e-06
-1.87921e-06
-1.68613e-06
-1.49747e-06
-1.31308e-06
-1.13287e-06
-9.56741e-07
-7.84523e-07
-6.1584e-07
-4.5017e-07
-2.8603e-07
-1.31246e-07
0.00019741
0.000197357
0.000197222
0.000196996
0.000196667
0.000196203
0.000195563
0.000194691
0.000193513
0.000191927
0.000189801
0.000186962
0.000183186
0.000178187
0.000171607
0.000163004
0.000151852
0.00013754
0.000119395
9.67324e-05
6.893e-05
3.55601e-05
-3.43824e-06
-4.75472e-05
-9.54524e-05
-0.000144888
-0.000192637
-0.0002348
-0.000267389
-0.000287183
-0.000292603
-0.000284223
-0.000264607
-0.000237514
-0.000206844
-0.000175813
-0.000146611
-0.000120467
-9.78924e-05
-7.89321e-05
-6.33501e-05
-5.07621e-05
-4.0727e-05
-3.28071e-05
-2.66021e-05
-2.17645e-05
-1.80029e-05
-1.50789e-05
-1.28013e-05
-1.10192e-05
-9.61514e-06
-8.4982e-06
-7.59887e-06
-6.86421e-06
-6.25406e-06
-5.73808e-06
-5.29345e-06
-4.90314e-06
-4.55448e-06
-4.23803e-06
-3.94667e-06
-3.67496e-06
-3.41877e-06
-3.17499e-06
-2.9414e-06
-2.71643e-06
-2.49899e-06
-2.28826e-06
-2.08356e-06
-1.88428e-06
-1.68996e-06
-1.50022e-06
-1.31486e-06
-1.13375e-06
-9.56783e-07
-7.83739e-07
-6.14239e-07
-4.4778e-07
-2.83004e-07
-1.28234e-07
0.000197249
0.00019719
0.000197038
0.000196787
0.000196422
0.000195912
0.000195213
0.00019427
0.000193004
0.000191315
0.000189068
0.00018609
0.000182157
0.000176985
0.000170222
0.000161433
0.000150105
0.000135646
0.000117409
9.47411e-05
6.7061e-05
3.39836e-05
-4.51281e-06
-4.78847e-05
-9.48214e-05
-0.000143105
-0.000189624
-0.000230639
-0.00026235
-0.000281709
-0.000287227
-0.000279445
-0.000260784
-0.000234799
-0.000205204
-0.000175093
-0.000146606
-0.000120971
-9.87274e-05
-7.99536e-05
-6.44491e-05
-5.18614e-05
-4.17756e-05
-3.37744e-05
-2.74727e-05
-2.25332e-05
-1.86716e-05
-1.56535e-05
-1.32903e-05
-1.1432e-05
-9.96138e-06
-8.78706e-06
-7.83885e-06
-7.06293e-06
-6.41823e-06
-5.87353e-06
-5.40517e-06
-4.99536e-06
-4.63075e-06
-4.30128e-06
-3.99934e-06
-3.71906e-06
-3.45595e-06
-3.20662e-06
-2.96856e-06
-2.74e-06
-2.51966e-06
-2.30658e-06
-2.09997e-06
-1.89914e-06
-1.70354e-06
-1.51273e-06
-1.32644e-06
-1.14449e-06
-9.6671e-07
-7.92858e-07
-6.22525e-07
-4.55181e-07
-2.8934e-07
-1.32967e-07
0.000197029
0.000196962
0.000196789
0.000196504
0.000196093
0.000195522
0.000194748
0.000193711
0.000192332
0.000190508
0.000188104
0.000184946
0.00018081
0.000175417
0.000168418
0.000159392
0.00014784
0.000133196
0.000114846
9.21793e-05
6.46636e-05
3.19675e-05
-5.88239e-06
-4.83133e-05
-9.4022e-05
-0.000140854
-0.000185833
-0.000225416
-0.000256041
-0.000274862
-0.000280501
-0.000273458
-0.000255977
-0.000231367
-0.000203113
-0.000174159
-0.000146577
-0.000121593
-9.97752e-05
-8.12453e-05
-6.58458e-05
-5.32635e-05
-4.3117e-05
-3.50149e-05
-2.85913e-05
-2.35228e-05
-1.95336e-05
-1.63952e-05
-1.39221e-05
-1.19659e-05
-1.04093e-05
-9.16079e-06
-8.14917e-06
-7.31958e-06
-6.62982e-06
-6.04752e-06
-5.54797e-06
-5.1124e-06
-4.72657e-06
-4.37968e-06
-4.06346e-06
-3.7715e-06
-3.49886e-06
-3.24174e-06
-2.99734e-06
-2.76358e-06
-2.53898e-06
-2.32237e-06
-2.11281e-06
-1.90952e-06
-1.71184e-06
-1.51925e-06
-1.33139e-06
-1.14802e-06
-9.6891e-07
-7.93762e-07
-6.22155e-07
-4.53576e-07
-2.86673e-07
-1.2997e-07
0.000196758
0.000196681
0.000196482
0.000196156
0.000195689
0.000195045
0.000194179
0.000193029
0.000191514
0.000189529
0.000186937
0.000183564
0.000179186
0.000173529
0.000166253
0.000156948
0.000145136
0.00013028
0.000111806
8.91522e-05
6.18445e-05
2.96124e-05
-7.46412e-06
-4.87817e-05
-9.30504e-05
-0.000138194
-0.000181392
-0.000219333
-0.000248714
-0.000266924
-0.0002727
-0.000266498
-0.000250361
-0.000227325
-0.00020062
-0.000173011
-0.000146493
-0.000122281
-0.000100976
-8.27447e-05
-6.7479e-05
-5.49117e-05
-4.46999e-05
-3.64833e-05
-2.99188e-05
-2.46993e-05
-2.05601e-05
-1.72797e-05
-1.46765e-05
-1.26038e-05
-1.09451e-05
-9.60818e-06
-8.52103e-06
-7.62753e-06
-6.88412e-06
-6.25713e-06
-5.72058e-06
-5.25452e-06
-4.84368e-06
-4.47635e-06
-4.14346e-06
-3.83798e-06
-3.55439e-06
-3.28845e-06
-3.03693e-06
-2.79745e-06
-2.56821e-06
-2.34784e-06
-2.13523e-06
-1.92943e-06
-1.72968e-06
-1.53536e-06
-1.34602e-06
-1.1613e-06
-9.80927e-07
-8.04541e-07
-6.31688e-07
-4.61826e-07
-2.9348e-07
-1.34849e-07
0.000196441
0.000196353
0.000196125
0.000195753
0.00019522
0.000194494
0.000193523
0.000192244
0.000190575
0.000188406
0.000185601
0.000181983
0.000177334
0.000171381
0.000163794
0.000154179
0.000142082
0.000126999
0.000108399
8.57761e-05
5.87198e-05
2.70249e-05
-9.17287e-06
-4.92413e-05
-9.19105e-05
-0.000135195
-0.000176449
-0.000212606
-0.000240646
-0.000258198
-0.00026412
-0.000258818
-0.000244129
-0.000222799
-0.000197784
-0.00017166
-0.000146328
-0.000122989
-0.00010227
-8.43875e-05
-6.92855e-05
-5.67466e-05
-4.64709e-05
-3.81325e-05
-3.14145e-05
-2.60284e-05
-2.17224e-05
-1.82829e-05
-1.55333e-05
-1.33292e-05
-1.15548e-05
-1.01175e-05
-8.94437e-06
-7.97793e-06
-7.17315e-06
-6.49489e-06
-5.91577e-06
-5.41452e-06
-4.97472e-06
-4.58359e-06
-4.23123e-06
-3.90983e-06
-3.61326e-06
-3.33677e-06
-3.07666e-06
-2.83018e-06
-2.59521e-06
-2.37013e-06
-2.15362e-06
-1.94458e-06
-1.74211e-06
-1.54547e-06
-1.3541e-06
-1.16756e-06
-9.85481e-07
-8.07459e-07
-6.33007e-07
-4.61594e-07
-2.91861e-07
-1.32527e-07
0.000196089
0.000195987
0.000195727
0.000195304
0.000194701
0.000193883
0.000192797
0.000191377
0.000189538
0.000187169
0.000184131
0.000180249
0.000175305
0.000169033
0.000161114
0.00015117
0.000138775
0.000123459
0.00010474
8.21705e-05
5.54066e-05
2.431e-05
-1.09284e-05
-4.96515e-05
-9.06166e-05
-0.000131939
-0.000171156
-0.00020546
-0.000232113
-0.000248986
-0.000255055
-0.000250677
-0.000237479
-0.000217921
-0.000194677
-0.000170125
-0.000146064
-0.000123672
-0.000103599
-8.61088e-05
-7.11994e-05
-5.8705e-05
-4.83716e-05
-3.99102e-05
-3.30324e-05
-2.74702e-05
-2.29861e-05
-1.93758e-05
-1.64682e-05
-1.41219e-05
-1.22218e-05
-1.06754e-05
-9.40861e-06
-8.36263e-06
-7.49092e-06
-6.75675e-06
-6.13121e-06
-5.59166e-06
-5.12036e-06
-4.70346e-06
-4.33005e-06
-3.99153e-06
-3.68109e-06
-3.39337e-06
-3.12421e-06
-2.87043e-06
-2.62955e-06
-2.39968e-06
-2.17926e-06
-1.96702e-06
-1.7619e-06
-1.56305e-06
-1.36978e-06
-1.18154e-06
-9.97892e-07
-8.18356e-07
-6.42407e-07
-4.69485e-07
-2.98127e-07
-1.36815e-07
0.000195709
0.000195594
0.0001953
0.000194821
0.000194144
0.000193228
0.00019202
0.000190451
0.000188432
0.000185852
0.000182569
0.000178409
0.000173157
0.000166553
0.000158289
0.000148009
0.000135312
0.000119768
0.000100944
7.84522e-05
5.20166e-05
2.15646e-05
-1.26607e-05
-4.99827e-05
-8.9193e-05
-0.000128514
-0.000165671
-0.000198112
-0.000223378
-0.000239573
-0.000245786
-0.000242322
-0.00023061
-0.000212828
-0.000191378
-0.000168436
-0.000145693
-0.000124295
-0.000104911
-8.78485e-05
-7.31577e-05
-6.07256e-05
-5.03446e-05
-4.17643e-05
-3.47262e-05
-2.89843e-05
-2.43166e-05
-2.0529e-05
-1.74565e-05
-1.49609e-05
-1.29287e-05
-1.1267e-05
-9.90113e-06
-8.77082e-06
-7.82797e-06
-7.03425e-06
-6.35918e-06
-5.77865e-06
-5.27359e-06
-4.82896e-06
-4.43284e-06
-4.07578e-06
-3.75023e-06
-3.45023e-06
-3.1711e-06