/*--------------------------------*- C++ -*----------------------------------*\
| =========                 |                                                 |
| \\      /  F ield         | OpenFOAM: The Open Source CFD Toolbox           |
|  \\    /   O peration     | Version:  2512                                  |
|   \\  /    A nd           | Website:  www.openfoam.com                      |
|    \\/     M anipulation  |                                                 |
\*---------------------------------------------------------------------------*/
FoamFile
{
    version     2.0;
    format      ascii;
    arch        "LSB;label=32;scalar=64";
    class       volScalarField;
    location    "100";
    object      nut;
}
// * * * * * * * * * * * * * * * * * * * * * * * * * * * * * * * * * * * * * //

dimensions      [0 2 -1 0 0 0 0];

internalField   nonuniform List<scalar> 
335663
(
0.000367705
0.00036197
0.000357067
0.000352803
0.000349041
0.000345685
0.000342661
0.000339914
0.0003374
0.000335085
0.000332943
0.00033095
0.000329089
0.000327344
0.000325702
0.000324153
0.000322688
0.000321297
0.000319975
0.000318715
0.000317512
0.000316361
0.000315259
0.000314201
0.000313185
0.000312206
0.000311264
0.000310355
0.000309477
0.000308628
0.000307806
0.000307011
0.000306239
0.000305491
0.000304764
0.000304058
0.000303371
0.000302702
0.000302051
0.000301417
0.000300798
0.000300195
0.000299606
0.000299031
0.000298469
0.00029792
0.000297383
0.000296858
0.000296344
0.00029584
0.000295347
0.000294863
0.00029439
0.000293925
0.000293469
0.000293022
0.000292583
0.000292152
0.000291729
0.000291313
0.000290904
0.000290502
0.000290107
0.000289719
0.000289337
0.00028896
0.00028859
0.000288226
0.000287867
0.000287514
0.000287166
0.000286823
0.000286485
0.000286151
0.000285823
0.000285499
0.00028518
0.000284865
0.000284554
0.000284263
0.000367705
0.00036197
0.000357067
0.000352803
0.000349041
0.000345685
0.000342661
0.000339914
0.0003374
0.000335085
0.000332943
0.00033095
0.000329089
0.000327344
0.000325702
0.000324153
0.000322688
0.000321297
0.000319975
0.000318715
0.000317512
0.000316361
0.000315259
0.000314201
0.000313184
0.000312206
0.000311264
0.000310354
0.000309476
0.000308627
0.000307806
0.00030701
0.000306239
0.00030549
0.000304763
0.000304057
0.00030337
0.000302702
0.00030205
0.000301416
0.000300798
0.000300194
0.000299606
0.00029903
0.000298469
0.00029792
0.000297382
0.000296857
0.000296343
0.000295839
0.000295346
0.000294863
0.000294389
0.000293924
0.000293469
0.000293021
0.000292582
0.000292151
0.000291728
0.000291312
0.000290903
0.000290502
0.000290107
0.000289718
0.000289336
0.00028896
0.00028859
0.000288225
0.000287866
0.000287513
0.000287165
0.000286822
0.000286484
0.000286151
0.000285822
0.000285499
0.000285179
0.000284864
0.000284554
0.000284263
0.000367705
0.00036197
0.000357067
0.000352803
0.000349041
0.000345685
0.000342661
0.000339914
0.0003374
0.000335085
0.000332943
0.00033095
0.000329089
0.000327344
0.000325702
0.000324153
0.000322687
0.000321297
0.000319975
0.000318715
0.000317512
0.000316361
0.000315259
0.000314201
0.000313184
0.000312206
0.000311263
0.000310354
0.000309476
0.000308627
0.000307805
0.00030701
0.000306238
0.00030549
0.000304763
0.000304056
0.000303369
0.000302701
0.00030205
0.000301415
0.000300797
0.000300193
0.000299604
0.000299029
0.000298468
0.000297918
0.000297381
0.000296856
0.000296342
0.000295838
0.000295345
0.000294862
0.000294388
0.000293923
0.000293468
0.00029302
0.000292581
0.00029215
0.000291727
0.000291311
0.000290902
0.000290501
0.000290106
0.000289717
0.000289335
0.000288959
0.000288589
0.000288224
0.000287865
0.000287512
0.000287164
0.000286821
0.000286483
0.00028615
0.000285821
0.000285497
0.000285178
0.000284863
0.000284553
0.000284262
0.000367705
0.00036197
0.000357067
0.000352803
0.000349041
0.000345685
0.000342661
0.000339914
0.0003374
0.000335085
0.000332943
0.00033095
0.000329089
0.000327344
0.000325702
0.000324153
0.000322687
0.000321297
0.000319974
0.000318714
0.000317511
0.000316361
0.000315258
0.0003142
0.000313184
0.000312205
0.000311263
0.000310353
0.000309475
0.000308626
0.000307805
0.000307009
0.000306237
0.000305489
0.000304762
0.000304055
0.000303368
0.0003027
0.000302048
0.000301414
0.000300796
0.000300192
0.000299603
0.000299028
0.000298466
0.000297917
0.00029738
0.000296855
0.00029634
0.000295837
0.000295344
0.00029486
0.000294387
0.000293922
0.000293466
0.000293019
0.00029258
0.000292149
0.000291726
0.00029131
0.000290901
0.000290499
0.000290104
0.000289716
0.000289333
0.000288957
0.000288587
0.000288223
0.000287864
0.000287511
0.000287162
0.000286819
0.000286481
0.000286148
0.00028582
0.000285496
0.000285177
0.000284862
0.000284551
0.00028426
0.000367705
0.00036197
0.000357067
0.000352803
0.000349041
0.000345685
0.000342661
0.000339914
0.0003374
0.000335085
0.000332943
0.00033095
0.000329089
0.000327344
0.000325702
0.000324153
0.000322687
0.000321297
0.000319974
0.000318714
0.000317511
0.00031636
0.000315258
0.0003142
0.000313183
0.000312205
0.000311262
0.000310353
0.000309475
0.000308626
0.000307804
0.000307008
0.000306237
0.000305488
0.000304761
0.000304054
0.000303367
0.000302698
0.000302047
0.000301413
0.000300794
0.000300191
0.000299602
0.000299027
0.000298465
0.000297916
0.000297379
0.000296853
0.000296339
0.000295835
0.000295342
0.000294859
0.000294385
0.00029392
0.000293465
0.000293017
0.000292578
0.000292147
0.000291724
0.000291308
0.000290899
0.000290498
0.000290103
0.000289714
0.000289332
0.000288956
0.000288586
0.000288221
0.000287862
0.000287509
0.000287161
0.000286818
0.00028648
0.000286147
0.000285818
0.000285494
0.000285175
0.00028486
0.00028455
0.000284259
0.000367705
0.00036197
0.000357067
0.000352803
0.000349041
0.000345685
0.000342661
0.000339914
0.0003374
0.000335085
0.000332943
0.00033095
0.000329089
0.000327344
0.000325702
0.000324153
0.000322687
0.000321296
0.000319974
0.000318714
0.000317511
0.00031636
0.000315258
0.0003142
0.000313183
0.000312204
0.000311262
0.000310352
0.000309474
0.000308625
0.000307803
0.000307007
0.000306236
0.000305487
0.00030476
0.000304053
0.000303366
0.000302697
0.000302046
0.000301411
0.000300793
0.000300189
0.0002996
0.000299025
0.000298463
0.000297914
0.000297377
0.000296852
0.000296337
0.000295834
0.000295341
0.000294857
0.000294383
0.000293919
0.000293463
0.000293016
0.000292577
0.000292146
0.000291722
0.000291306
0.000290898
0.000290496
0.000290101
0.000289712
0.00028933
0.000288954
0.000288584
0.000288219
0.000287861
0.000287507
0.000287159
0.000286816
0.000286478
0.000286145
0.000285817
0.000285493
0.000285173
0.000284858
0.000284548
0.000284257
0.000367705
0.00036197
0.000357067
0.000352803
0.000349041
0.000345685
0.000342661
0.000339914
0.0003374
0.000335085
0.000332943
0.00033095
0.000329089
0.000327344
0.000325702
0.000324153
0.000322687
0.000321296
0.000319974
0.000318714
0.000317511
0.00031636
0.000315257
0.000314199
0.000313182
0.000312204
0.000311261
0.000310352
0.000309473
0.000308624
0.000307802
0.000307006
0.000306235
0.000305486
0.000304759
0.000304052
0.000303365
0.000302696
0.000302045
0.00030141
0.000300791
0.000300188
0.000299599
0.000299024
0.000298462
0.000297913
0.000297375
0.00029685
0.000296336
0.000295832
0.000295339
0.000294855
0.000294382
0.000293917
0.000293461
0.000293014
0.000292575
0.000292144
0.000291721
0.000291305
0.000290896
0.000290494
0.000290099
0.00028971
0.000289328
0.000288952
0.000288582
0.000288218
0.000287859
0.000287505
0.000287157
0.000286814
0.000286476
0.000286143
0.000285815
0.000285491
0.000285171
0.000284856
0.000284546
0.000284255
0.000367705
0.00036197
0.000357067
0.000352803
0.000349041
0.000345685
0.000342661
0.000339914
0.0003374
0.000335085
0.000332943
0.00033095
0.000329089
0.000327344
0.000325702
0.000324153
0.000322687
0.000321296
0.000319974
0.000318714
0.00031751
0.00031636
0.000315257
0.000314199
0.000313182
0.000312203
0.000311261
0.000310351
0.000309473
0.000308623
0.000307801
0.000307005
0.000306234
0.000305485
0.000304757
0.000304051
0.000303363
0.000302694
0.000302043
0.000301409
0.00030079
0.000300186
0.000299597
0.000299022
0.00029846
0.000297911
0.000297374
0.000296848
0.000296334
0.00029583
0.000295337
0.000294854
0.00029438
0.000293915
0.000293459
0.000293012
0.000292573
0.000292142
0.000291719
0.000291303
0.000290894
0.000290492
0.000290097
0.000289709
0.000289326
0.00028895
0.00028858
0.000288216
0.000287857
0.000287503
0.000287155
0.000286812
0.000286474
0.000286141
0.000285813
0.000285489
0.000285169
0.000284854
0.000284544
0.000284253
0.000367705
0.00036197
0.000357067
0.000352803
0.000349041
0.000345685
0.000342661
0.000339914
0.0003374
0.000335085
0.000332943
0.00033095
0.000329089
0.000327344
0.000325702
0.000324153
0.000322687
0.000321296
0.000319974
0.000318713
0.00031751
0.000316359
0.000315257
0.000314198
0.000313181
0.000312203
0.00031126
0.00031035
0.000309472
0.000308622
0.000307801
0.000307004
0.000306232
0.000305483
0.000304756
0.000304049
0.000303362
0.000302693
0.000302042
0.000301407
0.000300788
0.000300185
0.000299596
0.00029902
0.000298458
0.000297909
0.000297372
0.000296846
0.000296332
0.000295828
0.000295335
0.000294852
0.000294378
0.000293913
0.000293457
0.00029301
0.000292571
0.00029214
0.000291717
0.000291301
0.000290892
0.00029049
0.000290095
0.000289706
0.000289324
0.000288948
0.000288578
0.000288213
0.000287855
0.000287501
0.000287153
0.00028681
0.000286472
0.000286139
0.00028581
0.000285487
0.000285167
0.000284852
0.000284542
0.000284251
0.000367705
0.00036197
0.000357067
0.000352803
0.000349041
0.000345685
0.000342661
0.000339913
0.0003374
0.000335085
0.000332943
0.00033095
0.000329089
0.000327343
0.000325702
0.000324153
0.000322687
0.000321296
0.000319973
0.000318713
0.00031751
0.000316359
0.000315256
0.000314198
0.000313181
0.000312202
0.000311259
0.00031035
0.000309471
0.000308622
0.0003078
0.000307003
0.000306231
0.000305482
0.000304755
0.000304048
0.00030336
0.000302691
0.00030204
0.000301405
0.000300787
0.000300183
0.000299594
0.000299019
0.000298457
0.000297907
0.00029737
0.000296844
0.00029633
0.000295826
0.000295333
0.00029485
0.000294376
0.000293911
0.000293455
0.000293008
0.000292569
0.000292138
0.000291715
0.000291299
0.00029089
0.000290488
0.000290093
0.000289704
0.000289322
0.000288946
0.000288576
0.000288211
0.000287852
0.000287499
0.000287151
0.000286808
0.00028647
0.000286137
0.000285808
0.000285484
0.000285165
0.00028485
0.00028454
0.000284248
0.000367705
0.00036197
0.000357067
0.000352803
0.000349041
0.000345685
0.000342661
0.000339913
0.0003374
0.000335085
0.000332942
0.00033095
0.000329088
0.000327343
0.000325702
0.000324152
0.000322686
0.000321296
0.000319973
0.000318713
0.00031751
0.000316359
0.000315256
0.000314198
0.00031318
0.000312202
0.000311259
0.000310349
0.00030947
0.000308621
0.000307799
0.000307002
0.00030623
0.000305481
0.000304753
0.000304047
0.000303359
0.00030269
0.000302038
0.000301404
0.000300785
0.000300181
0.000299592
0.000299017
0.000298455
0.000297905
0.000297368
0.000296843
0.000296328
0.000295824
0.000295331
0.000294848
0.000294374
0.000293909
0.000293453
0.000293006
0.000292567
0.000292136
0.000291712
0.000291297
0.000290888
0.000290486
0.000290091
0.000289702
0.00028932
0.000288944
0.000288574
0.000288209
0.00028785
0.000287497
0.000287149
0.000286806
0.000286468
0.000286134
0.000285806
0.000285482
0.000285163
0.000284848
0.000284537
0.000284246
0.000367705
0.00036197
0.000357067
0.000352803
0.000349041
0.000345685
0.000342661
0.000339913
0.000337399
0.000335085
0.000332942
0.00033095
0.000329088
0.000327343
0.000325702
0.000324152
0.000322686
0.000321295
0.000319973
0.000318713
0.000317509
0.000316358
0.000315255
0.000314197
0.00031318
0.000312201
0.000311258
0.000310348
0.000309469
0.00030862
0.000307798
0.000307001
0.000306229
0.00030548
0.000304752
0.000304045
0.000303358
0.000302688
0.000302037
0.000301402
0.000300783
0.000300179
0.00029959
0.000299015
0.000298453
0.000297903
0.000297366
0.000296841
0.000296326
0.000295822
0.000295329
0.000294846
0.000294372
0.000293907
0.000293451
0.000293004
0.000292565
0.000292134
0.00029171
0.000291294
0.000290886
0.000290484
0.000290089
0.0002897
0.000289318
0.000288942
0.000288571
0.000288207
0.000287848
0.000287495
0.000287146
0.000286803
0.000286465
0.000286132
0.000285804
0.00028548
0.00028516
0.000284845
0.000284535
0.000284244
0.000367705
0.00036197
0.000357067
0.000352803
0.000349041
0.000345685
0.000342661
0.000339913
0.000337399
0.000335085
0.000332942
0.00033095
0.000329088
0.000327343
0.000325701
0.000324152
0.000322686
0.000321295
0.000319973
0.000318712
0.000317509
0.000316358
0.000315255
0.000314197
0.000313179
0.000312201
0.000311257
0.000310347
0.000309469
0.000308619
0.000307797
0.000307
0.000306228
0.000305479
0.000304751
0.000304044
0.000303356
0.000302687
0.000302035
0.0003014
0.000300781
0.000300178
0.000299588
0.000299013
0.000298451
0.000297902
0.000297364
0.000296839
0.000296324
0.000295821
0.000295327
0.000294844
0.00029437
0.000293905
0.000293449
0.000293002
0.000292563
0.000292132
0.000291708
0.000291292
0.000290884
0.000290482
0.000290087
0.000289698
0.000289316
0.00028894
0.000288569
0.000288205
0.000287846
0.000287492
0.000287144
0.000286801
0.000286463
0.00028613
0.000285802
0.000285478
0.000285158
0.000284843
0.000284533
0.000284242
0.000367705
0.00036197
0.000357067
0.000352803
0.000349041
0.000345685
0.000342661
0.000339913
0.000337399
0.000335085
0.000332942
0.00033095
0.000329088
0.000327343
0.000325701
0.000324152
0.000322686
0.000321295
0.000319973
0.000318712
0.000317509
0.000316358
0.000315255
0.000314196
0.000313179
0.0003122
0.000311257
0.000310347
0.000309468
0.000308618
0.000307796
0.000306999
0.000306227
0.000305477
0.00030475
0.000304042
0.000303355
0.000302686
0.000302034
0.000301399
0.00030078
0.000300176
0.000299587
0.000299011
0.000298449
0.0002979
0.000297363
0.000296837
0.000296322
0.000295819
0.000295325
0.000294842
0.000294368
0.000293903
0.000293447
0.000293
0.000292561
0.00029213
0.000291706
0.00029129
0.000290882
0.00029048
0.000290085
0.000289696
0.000289314
0.000288938
0.000288567
0.000288203
0.000287844
0.00028749
0.000287142
0.000286799
0.000286461
0.000286128
0.000285799
0.000285476
0.000285156
0.000284841
0.000284531
0.00028424
0.000367705
0.00036197
0.000357067
0.000352803
0.000349041
0.000345685
0.000342661
0.000339913
0.000337399
0.000335085
0.000332942
0.00033095
0.000329088
0.000327343
0.000325701
0.000324152
0.000322686
0.000321295
0.000319972
0.000318712
0.000317509
0.000316357
0.000315254
0.000314196
0.000313179
0.0003122
0.000311256
0.000310346
0.000309467
0.000308617
0.000307795
0.000306998
0.000306226
0.000305476
0.000304749
0.000304041
0.000303354
0.000302684
0.000302032
0.000301397
0.000300778
0.000300175
0.000299585
0.00029901
0.000298448
0.000297898
0.000297361
0.000296835
0.000296321
0.000295817
0.000295324
0.00029484
0.000294366
0.000293902
0.000293446
0.000292998
0.000292559
0.000292128
0.000291705
0.000291289
0.00029088
0.000290478
0.000290083
0.000289694
0.000289312
0.000288936
0.000288565
0.000288201
0.000287842
0.000287489
0.00028714
0.000286797
0.000286459
0.000286126
0.000285798
0.000285474
0.000285154
0.000284839
0.000284529
0.000284238
0.000367705
0.00036197
0.000357067
0.000352803
0.000349041
0.000345685
0.000342661
0.000339913
0.000337399
0.000335085
0.000332942
0.00033095
0.000329088
0.000327343
0.000325701
0.000324152
0.000322686
0.000321295
0.000319972
0.000318712
0.000317508
0.000316357
0.000315254
0.000314196
0.000313178
0.000312199
0.000311256
0.000310346
0.000309467
0.000308617
0.000307794
0.000306998
0.000306225
0.000305475
0.000304748
0.00030404
0.000303352
0.000302683
0.000302031
0.000301396
0.000300777
0.000300173
0.000299584
0.000299009
0.000298446
0.000297897
0.00029736
0.000296834
0.000296319
0.000295816
0.000295322
0.000294839
0.000294365
0.0002939
0.000293444
0.000292997
0.000292558
0.000292127
0.000291703
0.000291287
0.000290878
0.000290476
0.000290081
0.000289693
0.00028931
0.000288934
0.000288564
0.000288199
0.00028784
0.000287487
0.000287139
0.000286796
0.000286458
0.000286124
0.000285796
0.000285472
0.000285153
0.000284838
0.000284527
0.000284236
0.000367705
0.00036197
0.000357067
0.000352803
0.000349041
0.000345685
0.000342661
0.000339913
0.000337399
0.000335085
0.000332942
0.00033095
0.000329088
0.000327343
0.000325701
0.000324152
0.000322686
0.000321295
0.000319972
0.000318712
0.000317508
0.000316357
0.000315254
0.000314195
0.000313178
0.000312199
0.000311255
0.000310345
0.000309466
0.000308616
0.000307794
0.000306997
0.000306224
0.000305475
0.000304747
0.00030404
0.000303352
0.000302682
0.00030203
0.000301395
0.000300776
0.000300172
0.000299583
0.000299007
0.000298445
0.000297896
0.000297358
0.000296833
0.000296318
0.000295815
0.000295321
0.000294838
0.000294364
0.000293899
0.000293443
0.000292996
0.000292557
0.000292125
0.000291702
0.000291286
0.000290877
0.000290475
0.00029008
0.000289691
0.000289309
0.000288933
0.000288563
0.000288198
0.000287839
0.000287486
0.000287138
0.000286794
0.000286456
0.000286123
0.000285795
0.000285471
0.000285151
0.000284836
0.000284526
0.000284235
0.000367705
0.00036197
0.000357067
0.000352803
0.000349041
0.000345685
0.000342661
0.000339913
0.000337399
0.000335085
0.000332942
0.000330949
0.000329088
0.000327343
0.000325701
0.000324152
0.000322686
0.000321295
0.000319972
0.000318712
0.000317508
0.000316357
0.000315254
0.000314195
0.000313178
0.000312199
0.000311255
0.000310345
0.000309466
0.000308616
0.000307793
0.000306996
0.000306224
0.000305474
0.000304746
0.000304039
0.000303351
0.000302682
0.00030203
0.000301395
0.000300776
0.000300172
0.000299582
0.000299007
0.000298445
0.000297895
0.000297358
0.000296832
0.000296317
0.000295814
0.00029532
0.000294837
0.000294363
0.000293898
0.000293442
0.000292995
0.000292556
0.000292125
0.000291701
0.000291285
0.000290876
0.000290474
0.000290079
0.00028969
0.000289308
0.000288932
0.000288562
0.000288197
0.000287838
0.000287485
0.000287137
0.000286794
0.000286455
0.000286122
0.000285794
0.00028547
0.00028515
0.000284835
0.000284525
0.000284234
0.000367705
0.00036197
0.000357067
0.000352803
0.000349041
0.000345685
0.000342661
0.000339913
0.000337399
0.000335085
0.000332942
0.000330949
0.000329088
0.000327343
0.000325701
0.000324152
0.000322686
0.000321295
0.000319972
0.000318712
0.000317508
0.000316357
0.000315254
0.000314195
0.000313178
0.000312198
0.000311255
0.000310345
0.000309466
0.000308616
0.000307793
0.000306996
0.000306224
0.000305474
0.000304746
0.000304039
0.000303351
0.000302681
0.000302029
0.000301394
0.000300775
0.000300171
0.000299582
0.000299006
0.000298444
0.000297895
0.000297357
0.000296832
0.000296317
0.000295813
0.00029532
0.000294836
0.000294362
0.000293898
0.000293442
0.000292994
0.000292555
0.000292124
0.000291701
0.000291285
0.000290876
0.000290474
0.000290079
0.00028969
0.000289308
0.000288931
0.000288561
0.000288197
0.000287838
0.000287484
0.000287136
0.000286793
0.000286455
0.000286122
0.000285793
0.000285469
0.00028515
0.000284835
0.000284524
0.000284233
0.000367705
0.00036197
0.000357067
0.000352803
0.000349041
0.000345685
0.000342661
0.000339913
0.000337399
0.000335085
0.000332942
0.000330949
0.000329088
0.000327343
0.000325701
0.000324152
0.000322686
0.000321295
0.000319972
0.000318711
0.000317508
0.000316357
0.000315254
0.000314195
0.000313178
0.000312198
0.000311255
0.000310345
0.000309466
0.000308616
0.000307793
0.000306996
0.000306224
0.000305474
0.000304746
0.000304039
0.000303351
0.000302681
0.000302029
0.000301394
0.000300775
0.000300171
0.000299582
0.000299006
0.000298444
0.000297894
0.000297357
0.000296831
0.000296317
0.000295813
0.00029532
0.000294836
0.000294362
0.000293897
0.000293442
0.000292994
0.000292555
0.000292124
0.0002917
0.000291284
0.000290876
0.000290474
0.000290078
0.00028969
0.000289307
0.000288931
0.000288561
0.000288196
0.000287838
0.000287484
0.000287136
0.000286793
0.000286455
0.000286121
0.000285793
0.000285469
0.00028515
0.000284835
0.000284524
0.000284233
0.000367705
0.00036197
0.000357067
0.000352803
0.000349041
0.000345685
0.000342661
0.000339913
0.000337399
0.000335085
0.000332942
0.000330949
0.000329088
0.000327343
0.000325701
0.000324152
0.000322686
0.000321295
0.000319972
0.000318712
0.000317508
0.000316357
0.000315254
0.000314195
0.000313178
0.000312199
0.000311255
0.000310345
0.000309466
0.000308616
0.000307793
0.000306997
0.000306224
0.000305474
0.000304746
0.000304039
0.000303351
0.000302681
0.00030203
0.000301394
0.000300775
0.000300171
0.000299582
0.000299007
0.000298444
0.000297895
0.000297357
0.000296832
0.000296317
0.000295813
0.00029532
0.000294836
0.000294362
0.000293898
0.000293442
0.000292994
0.000292555
0.000292124
0.000291701
0.000291285
0.000290876
0.000290474
0.000290079
0.00028969
0.000289308
0.000288931
0.000288561
0.000288197
0.000287838
0.000287484
0.000287136
0.000286793
0.000286455
0.000286122
0.000285793
0.000285469
0.00028515
0.000284835
0.000284524
0.000284233
0.000367705
0.00036197
0.000357067
0.000352803
0.000349041
0.000345685
0.000342661
0.000339913
0.000337399
0.000335085
0.000332942
0.000330949
0.000329088
0.000327343
0.000325701
0.000324152
0.000322686
0.000321295
0.000319972
0.000318712
0.000317508
0.000316357
0.000315254
0.000314195
0.000313178
0.000312199
0.000311255
0.000310345
0.000309466
0.000308616
0.000307793
0.000306997
0.000306224
0.000305475
0.000304747
0.000304039
0.000303351
0.000302682
0.00030203
0.000301395
0.000300776
0.000300172
0.000299582
0.000299007
0.000298445
0.000297895
0.000297358
0.000296832
0.000296318
0.000295814
0.00029532
0.000294837
0.000294363
0.000293898
0.000293442
0.000292995
0.000292556
0.000292125
0.000291701
0.000291285
0.000290876
0.000290474
0.000290079
0.00028969
0.000289308
0.000288932
0.000288562
0.000288197
0.000287838
0.000287485
0.000287137
0.000286794
0.000286455
0.000286122
0.000285794
0.00028547
0.00028515
0.000284835
0.000284525
0.000284234
0.000367705
0.00036197
0.000357067
0.000352803
0.000349041
0.000345685
0.000342661
0.000339913
0.000337399
0.000335085
0.000332942
0.000330949
0.000329088
0.000327343
0.000325701
0.000324152
0.000322686
0.000321295
0.000319972
0.000318712
0.000317508
0.000316357
0.000315254
0.000314195
0.000313178
0.000312199
0.000311255
0.000310345
0.000309466
0.000308616
0.000307794
0.000306997
0.000306224
0.000305475
0.000304747
0.00030404
0.000303352
0.000302682
0.00030203
0.000301395
0.000300776
0.000300172
0.000299583
0.000299007
0.000298445
0.000297896
0.000297358
0.000296833
0.000296318
0.000295814
0.000295321
0.000294837
0.000294364
0.000293899
0.000293443
0.000292996
0.000292556
0.000292125
0.000291702
0.000291286
0.000290877
0.000290475
0.00029008
0.000289691
0.000289309
0.000288933
0.000288562
0.000288198
0.000287839
0.000287486
0.000287137
0.000286794
0.000286456
0.000286123
0.000285795
0.000285471
0.000285151
0.000284836
0.000284526
0.000284234
0.000367705
0.00036197
0.000357067
0.000352803
0.000349041
0.000345685
0.000342661
0.000339913
0.000337399
0.000335085
0.000332942
0.00033095
0.000329088
0.000327343
0.000325701
0.000324152
0.000322686
0.000321295
0.000319972
0.000318712
0.000317508
0.000316357
0.000315254
0.000314195
0.000313178
0.000312199
0.000311256
0.000310346
0.000309467
0.000308617
0.000307794
0.000306997
0.000306225
0.000305475
0.000304748
0.00030404
0.000303352
0.000302683
0.000302031
0.000301396
0.000300777
0.000300173
0.000299584
0.000299008
0.000298446
0.000297897
0.000297359
0.000296834
0.000296319
0.000295815
0.000295322
0.000294838
0.000294364
0.0002939
0.000293444
0.000292997
0.000292557
0.000292126
0.000291703
0.000291287
0.000290878
0.000290476
0.000290081
0.000289692
0.00028931
0.000288934
0.000288564
0.000288199
0.00028784
0.000287487
0.000287138
0.000286795
0.000286457
0.000286124
0.000285796
0.000285472
0.000285152
0.000284837
0.000284527
0.000284236
0.000367705
0.00036197
0.000357067
0.000352803
0.000349041
0.000345685
0.000342661
0.000339913
0.000337399
0.000335085
0.000332942
0.00033095
0.000329088
0.000327343
0.000325701
0.000324152
0.000322686
0.000321295
0.000319972
0.000318712
0.000317508
0.000316357
0.000315254
0.000314196
0.000313178
0.000312199
0.000311256
0.000310346
0.000309467
0.000308617
0.000307795
0.000306998
0.000306226
0.000305476
0.000304748
0.000304041
0.000303353
0.000302684
0.000302032
0.000301397
0.000300778
0.000300174
0.000299585
0.000299009
0.000298447
0.000297898
0.00029736
0.000296835
0.00029632
0.000295817
0.000295323
0.00029484
0.000294366
0.000293901
0.000293445
0.000292998
0.000292559
0.000292128
0.000291704
0.000291288
0.000290879
0.000290477
0.000290082
0.000289694
0.000289311
0.000288935
0.000288565
0.0002882
0.000287842
0.000287488
0.00028714
0.000286797
0.000286459
0.000286126
0.000285797
0.000285473
0.000285154
0.000284839
0.000284528
0.000284237
0.000367705
0.00036197
0.000357067
0.000352803
0.000349041
0.000345685
0.000342661
0.000339913
0.000337399
0.000335085
0.000332942
0.00033095
0.000329088
0.000327343
0.000325701
0.000324152
0.000322686
0.000321295
0.000319972
0.000318712
0.000317509
0.000316357
0.000315254
0.000314196
0.000313179
0.0003122
0.000311257
0.000310346
0.000309468
0.000308618
0.000307795
0.000306999
0.000306226
0.000305477
0.000304749
0.000304042
0.000303354
0.000302685
0.000302033
0.000301398
0.000300779
0.000300175
0.000299586
0.000299011
0.000298449
0.000297899
0.000297362
0.000296836
0.000296322
0.000295818
0.000295325
0.000294841
0.000294367
0.000293903
0.000293447
0.000292999
0.00029256
0.000292129
0.000291706
0.00029129
0.000290881
0.000290479
0.000290084
0.000289695
0.000289313
0.000288937
0.000288567
0.000288202
0.000287843
0.00028749
0.000287142
0.000286799
0.000286461
0.000286127
0.000285799
0.000285475
0.000285156
0.00028484
0.00028453
0.000284239
0.000367705
0.00036197
0.000357067
0.000352803
0.000349041
0.000345685
0.000342661
0.000339913
0.000337399
0.000335085
0.000332942
0.00033095
0.000329088
0.000327343
0.000325701
0.000324152
0.000322686
0.000321295
0.000319973
0.000318712
0.000317509
0.000316358
0.000315255
0.000314196
0.000313179
0.0003122
0.000311257
0.000310347
0.000309468
0.000308619
0.000307796
0.000307
0.000306227
0.000305478
0.00030475
0.000304043
0.000303356
0.000302686
0.000302035
0.0003014
0.000300781
0.000300177
0.000299588
0.000299012
0.00029845
0.000297901
0.000297363
0.000296838
0.000296323
0.00029582
0.000295326
0.000294843
0.000294369
0.000293904
0.000293448
0.000293001
0.000292562
0.000292131
0.000291707
0.000291292
0.000290883
0.000290481
0.000290086
0.000289697
0.000289315
0.000288939
0.000288568
0.000288204
0.000287845
0.000287492
0.000287144
0.0002868
0.000286462
0.000286129
0.000285801
0.000285477
0.000285157
0.000284842
0.000284532
0.000284241
0.000367705
0.00036197
0.000357067
0.000352803
0.000349041
0.000345685
0.000342661
0.000339913
0.000337399
0.000335085
0.000332942
0.00033095
0.000329088
0.000327343
0.000325701
0.000324152
0.000322686
0.000321295
0.000319973
0.000318712
0.000317509
0.000316358
0.000315255
0.000314197
0.00031318
0.000312201
0.000311258
0.000310348
0.000309469
0.000308619
0.000307797
0.000307001
0.000306228
0.000305479
0.000304752
0.000304045
0.000303357
0.000302688
0.000302036
0.000301401
0.000300782
0.000300179
0.000299589
0.000299014
0.000298452
0.000297903
0.000297365
0.00029684
0.000296325
0.000295822
0.000295328
0.000294845
0.000294371
0.000293906
0.00029345
0.000293003
0.000292564
0.000292133
0.000291709
0.000291293
0.000290885
0.000290483
0.000290088
0.000289699
0.000289317
0.000288941
0.00028857
0.000288206
0.000287847
0.000287494
0.000287146
0.000286803
0.000286465
0.000286131
0.000285803
0.000285479
0.00028516
0.000284845
0.000284534
0.000284243
0.000367705
0.00036197
0.000357067
0.000352803
0.000349041
0.000345685
0.000342661
0.000339913
0.000337399
0.000335085
0.000332942
0.00033095
0.000329088
0.000327343
0.000325702
0.000324152
0.000322686
0.000321295
0.000319973
0.000318713
0.000317509
0.000316358
0.000315256
0.000314197
0.00031318
0.000312201
0.000311258
0.000310348
0.00030947
0.00030862
0.000307798
0.000307002
0.00030623
0.00030548
0.000304753
0.000304046
0.000303358
0.000302689
0.000302038
0.000301403
0.000300784
0.00030018
0.000299591
0.000299016
0.000298454
0.000297904
0.000297367
0.000296842
0.000296327
0.000295823
0.00029533
0.000294847
0.000294373
0.000293908
0.000293452
0.000293005
0.000292566
0.000292135
0.000291711
0.000291295
0.000290887
0.000290485
0.00029009
0.000289701
0.000289319
0.000288943
0.000288573
0.000288208
0.000287849
0.000287496
0.000287148
0.000286805
0.000286467
0.000286134
0.000285805
0.000285481
0.000285162
0.000284847
0.000284536
0.000284245
0.000367705
0.00036197
0.000357067
0.000352803
0.000349041
0.000345685
0.000342661
0.000339913
0.0003374
0.000335085
0.000332942
0.00033095
0.000329088
0.000327343
0.000325702
0.000324152
0.000322686
0.000321296
0.000319973
0.000318713
0.00031751
0.000316359
0.000315256
0.000314198
0.000313181
0.000312202
0.000311259
0.000310349
0.000309471
0.000308621
0.000307799
0.000307003
0.000306231
0.000305482
0.000304754
0.000304047
0.00030336
0.000302691
0.000302039
0.000301404
0.000300786
0.000300182
0.000299593
0.000299018
0.000298456
0.000297906
0.000297369
0.000296843
0.000296329
0.000295825
0.000295332
0.000294849
0.000294375
0.00029391
0.000293454
0.000293007
0.000292568
0.000292137
0.000291714
0.000291298
0.000290889
0.000290487
0.000290092
0.000289703
0.000289321
0.000288945
0.000288575
0.00028821
0.000287851
0.000287498
0.00028715
0.000286807
0.000286469
0.000286136
0.000285807
0.000285483
0.000285164
0.000284849
0.000284539
0.000284248
0.000367705
0.00036197
0.000357067
0.000352803
0.000349041
0.000345685
0.000342661
0.000339913
0.0003374
0.000335085
0.000332943
0.00033095
0.000329089
0.000327343
0.000325702
0.000324153
0.000322687
0.000321296
0.000319973
0.000318713
0.00031751
0.000316359
0.000315256
0.000314198
0.000313181
0.000312202
0.00031126
0.00031035
0.000309471
0.000308622
0.0003078
0.000307004
0.000306232
0.000305483
0.000304755
0.000304049
0.000303361
0.000302692
0.000302041
0.000301406
0.000300787
0.000300184
0.000299595
0.000299019
0.000298457
0.000297908
0.000297371
0.000296845
0.000296331