/*--------------------------------*- C++ -*----------------------------------*\
| =========                 |                                                 |
| \\      /  F ield         | OpenFOAM: The Open Source CFD Toolbox           |
|  \\    /   O peration     | Version:  2512                                  |
|   \\  /    A nd           | Website:  www.openfoam.com                      |
|    \\/     M anipulation  |                                                 |
\*---------------------------------------------------------------------------*/
FoamFile
{
    version     2.0;
    format      ascii;
    arch        "LSB;label=32;scalar=64";
    class       volScalarField;
    location    "100";
    object      omega;
}
// * * * * * * * * * * * * * * * * * * * * * * * * * * * * * * * * * * * * * //

dimensions      [0 0 -1 0 0 0 0];

internalField   nonuniform List<scalar> 
335663
(
8.07067
6.69608
5.69886
4.94659
4.36123
3.89415
3.51363
3.19818
2.93278
2.70663
2.51179
2.34231
2.19362
2.06218
1.94521
1.84047
1.74618
1.66087
1.58332
1.51255
1.44771
1.3881
1.33311
1.28225
1.23505
1.19115
1.15022
1.11196
1.07613
1.0425
1.01088
0.981089
0.952983
0.92642
0.901277
0.877445
0.854824
0.833324
0.812866
0.793375
0.774786
0.757037
0.740073
0.723845
0.708304
0.69341
0.679122
0.665405
0.652226
0.639553
0.627358
0.615615
0.604299
0.593388
0.582861
0.572697
0.562878
0.553388
0.544209
0.535327
0.526728
0.518399
0.510327
0.502501
0.494909
0.487541
0.480388
0.47344
0.466688
0.460125
0.453743
0.447535
0.441492
0.43561
0.429881
0.4243
0.418861
0.413558
0.408389
0.40342
8.07067
6.69608
5.69886
4.94659
4.36123
3.89415
3.51363
3.19818
2.93278
2.70663
2.51179
2.34231
2.19362
2.06218
1.94521
1.84047
1.74618
1.66087
1.58332
1.51255
1.44771
1.3881
1.33311
1.28225
1.23505
1.19115
1.15022
1.11196
1.07613
1.0425
1.01088
0.98109
0.952984
0.926421
0.901279
0.877447
0.854826
0.833326
0.812868
0.793377
0.774787
0.757039
0.740075
0.723846
0.708306
0.693411
0.679124
0.665407
0.652227
0.639554
0.627359
0.615616
0.604301
0.593389
0.582862
0.572698
0.562879
0.553388
0.54421
0.535328
0.526729
0.5184
0.510328
0.502501
0.494909
0.487542
0.480388
0.47344
0.466689
0.460126
0.453744
0.447535
0.441493
0.43561
0.429881
0.4243
0.418861
0.413559
0.408389
0.403421
8.07067
6.69608
5.69886
4.94659
4.36123
3.89415
3.51363
3.19818
2.93277
2.70663
2.51179
2.34231
2.19362
2.06218
1.94521
1.84047
1.74618
1.66086
1.58332
1.51255
1.44771
1.3881
1.33311
1.28224
1.23505
1.19115
1.15022
1.11196
1.07613
1.0425
1.01088
0.981092
0.952986
0.926424
0.901281
0.877449
0.854828
0.833329
0.81287
0.793379
0.77479
0.757041
0.740077
0.723848
0.708308
0.693413
0.679126
0.665409
0.652229
0.639556
0.627361
0.615618
0.604302
0.593391
0.582863
0.572699
0.562881
0.55339
0.544211
0.535329
0.52673
0.518401
0.510329
0.502502
0.49491
0.487543
0.480389
0.473441
0.46669
0.460127
0.453745
0.447536
0.441494
0.435611
0.429882
0.424301
0.418862
0.41356
0.40839
0.403422
8.07067
6.69608
5.69886
4.94659
4.36123
3.89415
3.51363
3.19818
2.93277
2.70663
2.51179
2.34231
2.19362
2.06218
1.94521
1.84047
1.74618
1.66086
1.58332
1.51255
1.44771
1.3881
1.33311
1.28224
1.23505
1.19115
1.15022
1.11196
1.07613
1.0425
1.01088
0.981094
0.952989
0.926427
0.901284
0.877452
0.854831
0.833332
0.812873
0.793382
0.774793
0.757044
0.74008
0.723851
0.708311
0.693416
0.679128
0.665411
0.652231
0.639558
0.627363
0.61562
0.604304
0.593393
0.582865
0.572701
0.562882
0.553392
0.544213
0.535331
0.526732
0.518403
0.510331
0.502504
0.494912
0.487544
0.480391
0.473443
0.466691
0.460128
0.453746
0.447537
0.441495
0.435612
0.429883
0.424302
0.418863
0.413561
0.408391
0.403423
8.07067
6.69608
5.69886
4.94659
4.36123
3.89415
3.51363
3.19818
2.93277
2.70663
2.51179
2.34231
2.19362
2.06218
1.94521
1.84047
1.74618
1.66086
1.58332
1.51254
1.44771
1.38809
1.33311
1.28224
1.23505
1.19115
1.15022
1.11196
1.07613
1.0425
1.01088
0.981097
0.952992
0.92643
0.901288
0.877456
0.854835
0.833335
0.812877
0.793386
0.774796
0.757047
0.740083
0.723854
0.708313
0.693419
0.679131
0.665413
0.652234
0.63956
0.627365
0.615622
0.604306
0.593395
0.582867
0.572703
0.562884
0.553394
0.544215
0.535333
0.526734
0.518404
0.510332
0.502506
0.494914
0.487546
0.480392
0.473444
0.466693
0.46013
0.453748
0.447539
0.441496
0.435614
0.429885
0.424303
0.418864
0.413562
0.408392
0.403424
8.07067
6.69608
5.69886
4.94659
4.36123
3.89415
3.51363
3.19817
2.93277
2.70662
2.51179
2.34231
2.19362
2.06218
1.9452
1.84047
1.74617
1.66086
1.58331
1.51254
1.4477
1.38809
1.33311
1.28224
1.23505
1.19115
1.15022
1.11196
1.07613
1.0425
1.01088
0.9811
0.952995
0.926433
0.901292
0.87746
0.854839
0.833339
0.81288
0.793389
0.7748
0.75705
0.740087
0.723857
0.708317
0.693422
0.679134
0.665416
0.652236
0.639563
0.627368
0.615625
0.604309
0.593398
0.58287
0.572706
0.562887
0.553396
0.544217
0.535335
0.526736
0.518406
0.510334
0.502508
0.494915
0.487548
0.480394
0.473446
0.466695
0.460132
0.453749
0.44754
0.441498
0.435615
0.429886
0.424305
0.418866
0.413563
0.408394
0.403425
8.07067
6.69608
5.69886
4.94659
4.36123
3.89415
3.51362
3.19817
2.93277
2.70662
2.51179
2.3423
2.19361
2.06217
1.9452
1.84046
1.74617
1.66085
1.58331
1.51254
1.4477
1.38809
1.33311
1.28224
1.23504
1.19115
1.15022
1.11196
1.07613
1.04251
1.01089
0.981103
0.952999
0.926437
0.901296
0.877464
0.854843
0.833343
0.812885
0.793394
0.774804
0.757054
0.74009
0.723861
0.70832
0.693425
0.679137
0.66542
0.652239
0.639566
0.627371
0.615628
0.604312
0.5934
0.582872
0.572708
0.562889
0.553398
0.544219
0.535337
0.526738
0.518409
0.510336
0.50251
0.494917
0.487549
0.480396
0.473448
0.466696
0.460133
0.453751
0.447542
0.441499
0.435617
0.429888
0.424306
0.418867
0.413565
0.408395
0.403427
8.07067
6.69608
5.69886
4.94659
4.36123
3.89415
3.51362
3.19817
2.93277
2.70662
2.51179
2.3423
2.19361
2.06217
1.9452
1.84046
1.74617
1.66085
1.58331
1.51253
1.4477
1.38808
1.3331
1.28223
1.23504
1.19115
1.15021
1.11196
1.07613
1.04251
1.01089
0.981107
0.953003
0.926442
0.901301
0.877469
0.854848
0.833348
0.812889
0.793398
0.774808
0.757059
0.740094
0.723865
0.708324
0.693429
0.679141
0.665423
0.652243
0.639569
0.627374
0.615631
0.604314
0.593403
0.582875
0.572711
0.562892
0.553401
0.544222
0.53534
0.52674
0.518411
0.510338
0.502512
0.494919
0.487552
0.480398
0.47345
0.466698
0.460135
0.453753
0.447544
0.441501
0.435618
0.429889
0.424308
0.418869
0.413566
0.408397
0.403428
8.07067
6.69608
5.69886
4.94659
4.36123
3.89415
3.51362
3.19817
2.93277
2.70662
2.51178
2.3423
2.19361
2.06217
1.94519
1.84046
1.74616
1.66085
1.5833
1.51253
1.44769
1.38808
1.3331
1.28223
1.23504
1.19114
1.15021
1.11196
1.07613
1.04251
1.01089
0.98111
0.953007
0.926447
0.901305
0.877474
0.854853
0.833353
0.812894
0.793403
0.774813
0.757063
0.740099
0.723869
0.708328
0.693433
0.679144
0.665427
0.652246
0.639573
0.627377
0.615634
0.604318
0.593406
0.582878
0.572713
0.562894
0.553403
0.544224
0.535342
0.526743
0.518413
0.510341
0.502514
0.494922
0.487554
0.4804
0.473452
0.4667
0.460137
0.453755
0.447546
0.441503
0.43562
0.429891
0.42431
0.418871
0.413568
0.408398
0.40343
8.07067
6.69608
5.69886
4.94659
4.36123
3.89415
3.51362
3.19817
2.93277
2.70662
2.51178
2.3423
2.1936
2.06217
1.94519
1.84045
1.74616
1.66084
1.5833
1.51252
1.44769
1.38808
1.33309
1.28223
1.23504
1.19114
1.15021
1.11196
1.07614
1.04251
1.0109
0.981114
0.953012
0.926452
0.901311
0.877479
0.854858
0.833359
0.8129
0.793408
0.774818
0.757068
0.740103
0.723874
0.708332
0.693437
0.679148
0.66543
0.65225
0.639576
0.627381
0.615637
0.604321
0.593409
0.582881
0.572716
0.562897
0.553406
0.544227
0.535345
0.526745
0.518416
0.510343
0.502516
0.494924
0.487556
0.480402
0.473454
0.466702
0.460139
0.453757
0.447548
0.441505
0.435622
0.429893
0.424312
0.418872
0.41357
0.4084
0.403432
8.07067
6.69608
5.69886
4.94659
4.36123
3.89415
3.51362
3.19817
2.93276
2.70662
2.51178
2.34229
2.1936
2.06216
1.94519
1.84045
1.74615
1.66084
1.58329
1.51252
1.44768
1.38807
1.33309
1.28222
1.23503
1.19114
1.15021
1.11196
1.07614
1.04251
1.0109
0.981118
0.953016
0.926457
0.901316
0.877485
0.854864
0.833364
0.812905
0.793413
0.774823
0.757073
0.740108
0.723878
0.708336
0.693441
0.679152
0.665434
0.652253
0.63958
0.627384
0.61564
0.604324
0.593412
0.582884
0.572719
0.5629
0.553409
0.544229
0.535347
0.526748
0.518418
0.510346
0.502519
0.494926
0.487558
0.480405
0.473456
0.466705
0.460141
0.453759
0.44755
0.441507
0.435624
0.429895
0.424314
0.418874
0.413572
0.408402
0.403433
8.07067
6.69608
5.69885
4.94659
4.36123
3.89415
3.51362
3.19817
2.93276
2.70661
2.51178
2.34229
2.1936
2.06216
1.94518
1.84044
1.74615
1.66083
1.58329
1.51251
1.44768
1.38807
1.33308
1.28222
1.23503
1.19114
1.15021
1.11196
1.07614
1.04252
1.0109
0.981122
0.953021
0.926462
0.901321
0.87749
0.854869
0.833369
0.81291
0.793418
0.774828
0.757077
0.740112
0.723882
0.708341
0.693445
0.679156
0.665438
0.652257
0.639583
0.627387
0.615643
0.604327
0.593415
0.582887
0.572722
0.562903
0.553411
0.544232
0.53535
0.52675
0.518421
0.510348
0.502521
0.494929
0.48756
0.480407
0.473458
0.466707
0.460143
0.453761
0.447552
0.441509
0.435626
0.429897
0.424315
0.418876
0.413573
0.408404
0.403435
8.07067
6.69608
5.69885
4.94659
4.36123
3.89414
3.51362
3.19817
2.93276
2.70661
2.51178
2.34229
2.1936
2.06216
1.94518
1.84044
1.74614
1.66083
1.58328
1.51251
1.44767
1.38806
1.33308
1.28222
1.23503
1.19113
1.15021
1.11196
1.07614
1.04252
1.01091
0.981126
0.953025
0.926467
0.901326
0.877495
0.854874
0.833375
0.812915
0.793423
0.774832
0.757082
0.740117
0.723887
0.708345
0.693449
0.67916
0.665441
0.65226
0.639586
0.627391
0.615647
0.60433
0.593418
0.58289
0.572725
0.562905
0.553414
0.544235
0.535352
0.526753
0.518423
0.51035
0.502523
0.494931
0.487563
0.480409
0.473461
0.466709
0.460145
0.453763
0.447554
0.441511
0.435628
0.429899
0.424317
0.418878
0.413575
0.408405
0.403437
8.07067
6.69608
5.69885
4.94658
4.36123
3.89414
3.51362
3.19816
2.93276
2.70661
2.51177
2.34229
2.19359
2.06215
1.94517
1.84044
1.74614
1.66082
1.58328
1.5125
1.44767
1.38806
1.33308
1.28221
1.23502
1.19113
1.15021
1.11196
1.07614
1.04252
1.01091
0.98113
0.95303
0.926471
0.901331
0.8775
0.854879
0.833379
0.81292
0.793428
0.774837
0.757086
0.740121
0.72389
0.708348
0.693452
0.679163
0.665445
0.652264
0.63959
0.627394
0.61565
0.604333
0.593421
0.582892
0.572728
0.562908
0.553417
0.544237
0.535355
0.526755
0.518425
0.510353
0.502526
0.494933
0.487565
0.480411
0.473463
0.466711
0.460147
0.453765
0.447555
0.441513
0.43563
0.4299
0.424319
0.41888
0.413577
0.408407
0.403438
8.07067
6.69608
5.69885
4.94658
4.36123
3.89414
3.51362
3.19816
2.93276
2.70661
2.51177
2.34228
2.19359
2.06215
1.94517
1.84043
1.74614
1.66082
1.58327
1.5125
1.44766
1.38805
1.33307
1.28221
1.23502
1.19113
1.15021
1.11196
1.07614
1.04252
1.01091
0.981133
0.953034
0.926475
0.901336
0.877505
0.854884
0.833384
0.812924
0.793432
0.774841
0.75709
0.740125
0.723894
0.708352
0.693456
0.679166
0.665448
0.652267
0.639592
0.627396
0.615652
0.604335
0.593423
0.582895
0.57273
0.56291
0.553419
0.544239
0.535357
0.526757
0.518427
0.510355
0.502527
0.494935
0.487567
0.480413
0.473464
0.466712
0.460149
0.453766
0.447557
0.441514
0.435631
0.429902
0.42432
0.418881
0.413578
0.408409
0.40344
8.07067
6.69608
5.69885
4.94658
4.36123
3.89414
3.51362
3.19816
2.93276
2.70661
2.51177
2.34228
2.19359
2.06215
1.94517
1.84043
1.74613
1.66081
1.58327
1.5125
1.44766
1.38805
1.33307
1.2822
1.23502
1.19113
1.1502
1.11196
1.07614
1.04252
1.01091
0.981136
0.953037
0.926479
0.90134
0.877509
0.854888
0.833388
0.812928
0.793436
0.774844
0.757094
0.740128
0.723897
0.708355
0.693459
0.679169
0.66545
0.652269
0.639595
0.627399
0.615655
0.604338
0.593426
0.582897
0.572732
0.562912
0.553421
0.544241
0.535359
0.526759
0.518429
0.510356
0.502529
0.494937
0.487568
0.480414
0.473466
0.466714
0.460151
0.453768
0.447559
0.441516
0.435633
0.429903
0.424322
0.418882
0.41358
0.40841
0.403441
8.07067
6.69608
5.69885
4.94658
4.36122
3.89414
3.51362
3.19816
2.93276
2.70661
2.51177
2.34228
2.19359
2.06214
1.94517
1.84043
1.74613
1.66081
1.58326
1.51249
1.44765
1.38804
1.33306
1.2822
1.23501
1.19113
1.1502
1.11196
1.07614
1.04252
1.01091
0.981138
0.95304
0.926482
0.901343
0.877512
0.854891
0.833391
0.812931
0.793439
0.774847
0.757096
0.740131
0.7239
0.708357
0.693461
0.679171
0.665453
0.652271
0.639597
0.627401
0.615656
0.60434
0.593427
0.582899
0.572734
0.562914
0.553422
0.544243
0.53536
0.526761
0.518431
0.510358
0.502531
0.494938
0.48757
0.480416
0.473467
0.466715
0.460152
0.453769
0.44756
0.441517
0.435634
0.429905
0.424323
0.418883
0.413581
0.408411
0.403442
8.07067
6.69608
5.69885
4.94658
4.36122
3.89414
3.51362
3.19816
2.93276
2.7066
2.51177
2.34228
2.19358
2.06214
1.94516
1.84042
1.74613
1.66081
1.58326
1.51249
1.44765
1.38804
1.33306
1.2822
1.23501
1.19112
1.1502
1.11196
1.07614
1.04252
1.01092
0.98114
0.953042
0.926484
0.901345
0.877514
0.854893
0.833393
0.812933
0.793441
0.774849
0.757098
0.740132
0.723901
0.708359
0.693462
0.679173
0.665454
0.652273
0.639598
0.627402
0.615658
0.604341
0.593429
0.5829
0.572735
0.562915
0.553423
0.544244
0.535361
0.526762
0.518432
0.510359
0.502532
0.494939
0.48757
0.480417
0.473468
0.466716
0.460153
0.45377
0.447561
0.441518
0.435635
0.429905
0.424324
0.418884
0.413582
0.408412
0.403443
8.07067
6.69608
5.69885
4.94658
4.36122
3.89414
3.51361
3.19816
2.93276
2.7066
2.51177
2.34228
2.19358
2.06214
1.94516
1.84042
1.74612
1.66081
1.58326
1.51249
1.44765
1.38804
1.33306
1.2822
1.23501
1.19112
1.1502
1.11196
1.07614
1.04253
1.01092
0.98114
0.953043
0.926485
0.901346
0.877516
0.854895
0.833395
0.812935
0.793442
0.77485
0.757099
0.740133
0.723902
0.70836
0.693463
0.679174
0.665455
0.652273
0.639599
0.627403
0.615658
0.604341
0.593429
0.5829
0.572735
0.562916
0.553424
0.544244
0.535362
0.526762
0.518432
0.510359
0.502532
0.494939
0.487571
0.480417
0.473469
0.466717
0.460153
0.45377
0.447561
0.441518
0.435635
0.429906
0.424324
0.418885
0.413582
0.408412
0.403443
8.07067
6.69608
5.69885
4.94658
4.36122
3.89414
3.51361
3.19816
2.93276
2.7066
2.51177
2.34228
2.19358
2.06214
1.94516
1.84042
1.74612
1.6608
1.58326
1.51249
1.44765
1.38804
1.33306
1.28219
1.23501
1.19112
1.1502
1.11196
1.07614
1.04252
1.01092
0.98114
0.953043
0.926485
0.901346
0.877516
0.854895
0.833395
0.812935
0.793442
0.77485
0.757099
0.740133
0.723902
0.70836
0.693463
0.679174
0.665455
0.652274
0.639599
0.627403
0.615658
0.604342
0.593429
0.582901
0.572735
0.562916
0.553424
0.544245
0.535362
0.526762
0.518432
0.510359
0.502532
0.49494
0.487571
0.480417
0.473469
0.466717
0.460153
0.453771
0.447561
0.441518
0.435635
0.429906
0.424324
0.418885
0.413582
0.408412
0.403444
8.07067
6.69608
5.69885
4.94658
4.36122
3.89414
3.51361
3.19816
2.93276
2.7066
2.51177
2.34228
2.19358
2.06214
1.94516
1.84042
1.74612
1.6608
1.58326
1.51249
1.44765
1.38804
1.33306
1.28219
1.23501
1.19112
1.1502
1.11196
1.07614
1.04252
1.01092
0.981139
0.953042
0.926484
0.901346
0.877515
0.854894
0.833394
0.812934
0.793441
0.77485
0.757099
0.740133
0.723902
0.708359
0.693463
0.679173
0.665454
0.652273
0.639599
0.627402
0.615658
0.604341
0.593429
0.5829
0.572735
0.562915
0.553424
0.544244
0.535362
0.526762
0.518432
0.510359
0.502532
0.494939
0.487571
0.480417
0.473469
0.466717
0.460153
0.45377
0.447561
0.441518
0.435635
0.429906
0.424324
0.418885
0.413582
0.408412
0.403443
8.07067
6.69608
5.69885
4.94658
4.36122
3.89414
3.51361
3.19816
2.93276
2.7066
2.51177
2.34228
2.19358
2.06214
1.94516
1.84042
1.74612
1.66081
1.58326
1.51249
1.44765
1.38804
1.33306
1.28219
1.23501
1.19112
1.1502
1.11196
1.07614
1.04252
1.01091
0.981138
0.95304
0.926483
0.901344
0.877514
0.854893
0.833393
0.812933
0.79344
0.774848
0.757097
0.740132
0.723901
0.708358
0.693462
0.679172
0.665453
0.652272
0.639598
0.627401
0.615657
0.60434
0.593428
0.582899
0.572734
0.562915
0.553423
0.544244
0.535361
0.526761
0.518431
0.510359
0.502531
0.494939
0.48757
0.480417
0.473468
0.466716
0.460153
0.45377
0.447561
0.441518
0.435635
0.429906
0.424324
0.418884
0.413582
0.408412
0.403443
8.07067
6.69608
5.69885
4.94658
4.36122
3.89414
3.51362
3.19816
2.93276
2.7066
2.51177
2.34228
2.19358
2.06214
1.94516
1.84042
1.74613
1.66081
1.58326
1.51249
1.44765
1.38804
1.33306
1.2822
1.23501
1.19112
1.1502
1.11196
1.07614
1.04252
1.01091
0.981137
0.953039
0.926481
0.901342
0.877511
0.854891
0.83339
0.812931
0.793438
0.774847
0.757096
0.74013
0.723899
0.708357
0.69346
0.679171
0.665452
0.652271
0.639596
0.6274
0.615656
0.604339
0.593427
0.582898
0.572733
0.562914
0.553422
0.544243
0.53536
0.52676
0.51843
0.510358
0.50253
0.494938
0.48757
0.480416
0.473467
0.466715
0.460152
0.453769
0.44756
0.441517
0.435634
0.429905
0.424323
0.418884
0.413581
0.408411
0.403442
8.07067
6.69608
5.69885
4.94658
4.36122
3.89414
3.51362
3.19816
2.93276
2.70661
2.51177
2.34228
2.19359
2.06214
1.94516
1.84042
1.74613
1.66081
1.58326
1.51249
1.44765
1.38804
1.33306
1.2822
1.23501
1.19112
1.1502
1.11196
1.07614
1.04252
1.01091
0.981134
0.953036
0.926478
0.901339
0.877508
0.854887
0.833387
0.812928
0.793435
0.774844
0.757093
0.740127
0.723897
0.708354
0.693458
0.679169
0.66545
0.652269
0.639594
0.627398
0.615654
0.604337
0.593425
0.582897
0.572732
0.562912
0.553421
0.544241
0.535359
0.526759
0.518429
0.510356
0.502529
0.494937
0.487568
0.480415
0.473466
0.466714
0.460151
0.453768
0.447559
0.441516
0.435633
0.429904
0.424322
0.418883
0.41358
0.40841
0.403442
8.07067
6.69608
5.69885
4.94658
4.36123
3.89414
3.51362
3.19816
2.93276
2.70661
2.51177
2.34228
2.19359
2.06215
1.94517
1.84043
1.74613
1.66081
1.58327
1.51249
1.44766
1.38805
1.33306
1.2822
1.23501
1.19112
1.1502
1.11196
1.07614
1.04252
1.01091
0.981132
0.953033
0.926475
0.901335
0.877504
0.854884
0.833384
0.812924
0.793432
0.77484
0.75709
0.740124
0.723894
0.708351
0.693455
0.679166
0.665447
0.652266
0.639592
0.627396
0.615652
0.604335
0.593423
0.582895
0.57273
0.56291
0.553419
0.544239
0.535357
0.526757
0.518427
0.510355
0.502528
0.494935
0.487567
0.480413
0.473465
0.466713
0.460149
0.453767
0.447558
0.441515
0.435632
0.429903
0.424321
0.418882
0.413579
0.408409
0.403441
8.07067
6.69608
5.69885
4.94658
4.36123
3.89414
3.51362
3.19816
2.93276
2.70661
2.51177
2.34228
2.19359
2.06215
1.94517
1.84043
1.74613
1.66082
1.58327
1.5125
1.44766
1.38805
1.33307
1.2822
1.23502
1.19113
1.1502
1.11196
1.07614
1.04252
1.01091
0.981128
0.953029
0.92647
0.901331
0.8775
0.854879
0.833379
0.81292
0.793428
0.774836
0.757086
0.74012
0.72389
0.708348
0.693452
0.679163
0.665444
0.652263
0.639589
0.627393
0.615649
0.604333
0.593421
0.582892
0.572727
0.562908
0.553416
0.544237
0.535355
0.526755
0.518425
0.510353
0.502526
0.494933
0.487565
0.480411
0.473463
0.466711
0.460148
0.453765
0.447556
0.441513
0.43563
0.429901
0.42432
0.41888
0.413578
0.408408
0.403439
8.07067
6.69608
5.69885
4.94658
4.36123
3.89414
3.51362
3.19816
2.93276
2.70661
2.51177
2.34229
2.19359
2.06215
1.94517
1.84043
1.74614
1.66082
1.58327
1.5125
1.44766
1.38805
1.33307
1.28221
1.23502
1.19113
1.1502
1.11196
1.07613
1.04252
1.0109
0.981124
0.953024
0.926466
0.901326
0.877495
0.854874
0.833374
0.812915
0.793423
0.774832
0.757081
0.740116
0.723886
0.708344
0.693448
0.679159
0.665441
0.65226
0.639586
0.62739
0.615646
0.60433
0.593418
0.582889
0.572725
0.562905
0.553414
0.544235
0.535352
0.526753
0.518423
0.510351
0.502524
0.494931
0.487563
0.480409
0.473461
0.466709
0.460146
0.453763
0.447554
0.441512
0.435629
0.4299
0.424318
0.418879
0.413576
0.408406
0.403438
8.07067
6.69608
5.69885
4.94658
4.36123
3.89414
3.51362
3.19817
2.93276
2.70661
2.51177
2.34229
2.19359
2.06215
1.94518
1.84044
1.74614
1.66082
1.58328
1.51251
1.44767
1.38806
1.33308
1.28221
1.23502
1.19113
1.1502
1.11196
1.07613
1.04251
1.0109
0.98112
0.95302
0.926461
0.90132
0.877489
0.854868
0.833369
0.81291
0.793418
0.774827
0.757077
0.740112
0.723882
0.70834
0.693444
0.679155
0.665437
0.652256
0.639582
0.627387
0.615643
0.604327
0.593415
0.582886
0.572722
0.562903
0.553411
0.544232
0.53535
0.52675
0.518421
0.510348
0.502521
0.494929
0.487561
0.480407
0.473459
0.466707
0.460144
0.453761
0.447552
0.44151
0.435627
0.429898
0.424316
0.418877
0.413575
0.408405
0.403436
8.07067
6.69608
5.69885
4.94659
4.36123
3.89414
3.51362
3.19817
2.93276
2.70661
2.51178
2.34229
2.1936
2.06216
1.94518
1.84044
1.74615
1.66083
1.58328
1.51251
1.44767
1.38806
1.33308
1.28221
1.23503
1.19113
1.15021
1.11196
1.07613
1.04251
1.0109
0.981116
0.953015
0.926455
0.901315
0.877484
0.854863
0.833363
0.812904
0.793412
0.774822
0.757072
0.740107
0.723877
0.708336
0.69344
0.679151
0.665433
0.652253
0.639579
0.627383
0.61564
0.604323
0.593412
0.582883
0.572719
0.5629
0.553408
0.544229
0.535347
0.526748
0.518418
0.510346
0.502519
0.494927
0.487559
0.480405
0.473457
0.466705
0.460142
0.453759
0.44755
0.441508
0.435625
0.429896
0.424315
0.418875
0.413573
0.408403
0.403435
8.07067
6.69608
5.69885
4.94659
4.36123
3.89415
3.51362
3.19817
2.93276
2.70661
2.51178
2.34229
2.1936
2.06216
1.94518
1.84045
1.74615
1.66083
1.58329
1.51252
1.44768
1.38807
1.33308
1.28222
1.23503
1.19113
1.15021
1.11196
1.07613
1.04251
1.01089
0.981112
0.95301
0.92645
0.901309
0.877478
0.854857
0.833358
0.812899
0.793407
0.774817
0.757067
0.740102
0.723873
0.708331
0.693436
0.679147
0.665429
0.652249
0.639575
0.62738
0.615636
0.60432
0.593408
0.58288
0.572716
0.562897
0.553406
0.544227
0.535344
0.526745
0.518416
0.510343
0.502516
0.494924
0.487556
0.480403
0.473454
0.466703
0.46014
0.453757
0.447548
0.441506
0.435623
0.429894
0.424313
0.418873
0.413571
0.408401
0.403433
8.07067
6.69608
5.69886
4.94659
4.36123
3.89415
3.51362
3.19817
2.93277
2.70662
2.51178
2.3423
2.1936
2.06216
1.94519
1.84045
1.74615
1.66084
1.58329
1.51252
1.44768
1.38807
1.33309
1.28222
1.23503
1.19114
1.15021
1.11196
1.07613
1.04251
1.01089
0.981108
0.953005
0.926445
0.901304
0.877472
0.854851
0.833352
0.812893
0.793402
0.774812
0.757062
0.740098
0.723868
0.708327
0.693432
0.679143
0.665425
0.652245
0.639572
0.627376
0.615633
0.604317
0.593405
0.582877
0.572713
0.562894
0.553403
0.544224
0.535342
0.526743
0.518413
0.510341
0.502514
0.494922
0.487554
0.4804
0.473452
0.466701
0.460138
0.453755
0.447546
0.441504
0.435621
0.429892
0.424311
0.418872
0.413569
0.4084
0.403431
8.07067
6.69608
5.69886
4.94659
4.36123
3.89415
3.51362
3.19817
2.93277
2.70662
2.51178
2.3423
2.19361
2.06217
1.94519
1.84045
1.74616
1.66084
1.5833
1.51253
1.44769
1.38808
1.33309
1.28223
1.23503
1.19114
1.15021
1.11196
1.07613
1.0425
1.01089
0.981104
0.953
0.92644
0.901298
0.877467
0.854846
0.833346
0.812888
0.793397
0.774807
0.757057
0.740093
0.723864
0.708323
0.693427
0.679139
0.665422
0.652241
0.639568
0.627373
0.61563
0.604314
0.593402
0.582874
0.57271
0.562891
0.5534
0.544221
0.535339
0.52674
0.518411
0.510338
0.502512
0.49492
0.487552
0.480398
0.47345
0.466699
0.460136
0.453753
0.447544
0.441502
0.435619
0.42989
0.424309
0.41887
0.413568
0.408398
0.403429
8.07067
6.69608
5.69886
4.94659
4.36123
3.89415
3.51362
3.19817
2.93277
2.70662
2.51178
2.3423
2.19361
2.06217
1.94519
1.84046
1.74616
1.66085
1.5833
1.51253
1.44769
1.38808
1.3331
1.28223
1.23504
1.19114
1.15021
1.11195
1.07613
1.0425
1.01088
0.9811
0.952996
0.926435
0.901293
0.877462
0.854841
0.833341
0.812883
0.793392
0.774802
0.757052
0.740088
0.723859
0.708318
0.693424
0.679135
0.665418
0.652238
0.639565
0.62737
0.615626
0.60431
0.593399
0.582871
0.572707
0.562888
0.553397
0.544219
0.535337
0.526738
0.518408
0.510336
0.502509
0.494917
0.487549
0.480396
0.473448
0.466697
0.460134
0.453751
0.447543
0.4415
0.435618
0.429889
0.424307
0.418868
0.413566
0.408396
0.403428
8.07067
6.69608
5.69886
4.94659
4.36123
3.89415
3.51362
3.19817
2.93277
2.70662
2.51179
2.3423
2.19361
2.06217
1.9452
1.84046
1.74617
1.66085
1.58331
1.51253
1.4477
1.38808
1.3331
1.28223
1.23504
1.19114
1.15021
1.11195
1.07612
1.0425
1.01088
0.981096
0.952992
0.92643
0.901289
0.877457
0.854836
0.833337
0.812878
0.793387
0.774797
0.757048
0.740084
0.723855
0.708315
0.69342
0.679132
0.665415
0.652235
0.639561
0.627366
0.615623
0.604308
0.593396
0.582869
0.572704
0.562886
0.553395
0.544216
0.535334
0.526735
0.518406
0.510334
0.502507
0.494915
0.487547
0.480394
0.473446
0.466695
0.460132
0.45375
0.447541
0.441498
0.435616
0.429887
0.424306
0.418867
0.413564
0.408395
0.403426
8.07067
6.69608
5.69886
4.94659
4.36123
3.89415
3.51362
3.19817
2.93277
2.70662
2.51179
2.3423
2.19361
2.06217
1.9452
1.84046
1.74617
1.66085
1.58331
1.51254
1.4477
1.38809
1.3331
1.28223
1.23504
1.19114
1.15021
1.11195
1.07612
1.0425
1.01088
0.981093
0.952988
0.926426
0.901284
0.877453
0.854832
0.833332
0.812874
0.793383
0.774793
0.757044
0.740081
0.723852
0.708311
0.693416
0.679129
0.665411
0.652232
0.639558
0.627364
0.615621
0.604305
0.593394
0.582866
0.572702
0.562883
0.553393
0.544214
0.535332
0.526733
0.518404
0.510332
0.502505
0.494913
0.487546
0.480392
0.473444
0.466693
0.46013
0.453748
0.447539
0.441497
0.435614
0.429885
0.424304
0.418865
0.413563
0.408393
0.403425
8.07067
6.69608
5.69886
4.94659
4.36123
3.89415
3.51363
3.19817
2.93277
2.70662
2.51179
2.34231
2.19362
2.06218
1.9452
1.84047
1.74617
1.66086
1.58331
1.51254
1.4477
1.38809
1.33311
1.28224
1.23504
1.19114
1.15021
1.11195
1.07612
1.0425
1.01088
0.98109
0.952985
0.926423
0.901281
0.877449
0.854828
0.833328
0.81287
0.793379
0.77479
0.757041
0.740077
0.723848
0.708308
0.693413
0.679126
0.665408
0.652229
0.639556
0.627361
0.615618
0.604302
0.593391
0.582864
0.5727
0.562881
0.55339
0.544212
0.53533
0.526731
0.518402
0.51033
0.502503
0.494912
0.487544
0.480391
0.473443
0.466691
0.460129
0.453746
0.447538
0.441495
0.435613
0.429884
0.424303
0.418864
0.413562
0.408392
0.403424
8.07067
6.69608
5.69886
4.94659
4.36123
3.89415
3.51363
3.19817
2.93277
2.70663
2.51179
2.34231
2.19362
2.06218
1.9452
1.84047
1.74617
1.66086
1.58332
1.51254
1.4477
1.38809
1.33311
1.28224
1.23504
1.19114
1.15021
1.11195
1.07612
1.04249
1.01087
0.981087
0.952982
0.926419
0.901277
0.877445
0.854824
0.833325
0.812866
0.793376
0.774786
0.757037
0.740074
0.723845
0.708305
0.693411
0.679123
0.665406
0.652226
0.639553
0.627359
0.615616
0.6043
0.593389
0.582862
0.572698
0.562879
0.553388
0.54421
0.535328
0.526729
0.5184
0.510328
0.502502
0.49491
0.487542
0.480389
0.473441
0.46669
0.460127
0.453745
0.447536
0.441494
0.435612
0.429883
0.424302
0.418863
0.41356
0.408391
0.403423
8.07067
6.69608
5.69886
4.94659
4.36123
3.89415
3.51363
3.19818
2.93277
2.70663
2.51179
2.34231
2.19362
2.06218
1.94521
1.84047
1.74618
1.66086
1.58332
1.51254
1.44771
1.38809
1.33311
1.28224
1.23504
1.19114
1.15021
1.11195
1.07612
1.04249
1.01087
0.981085
0.952979
0.926417
0.901274
0.877442
0.854821
0.833322
0.812863
0.793373
0.774783
0.757035
0.740071
0.723843
0.708302
0.693408
0.67912
0.665404
0.652224
0.639551
0.627357
0.615614
0.604298
0.593387
0.58286
0.572696
0.562877
0.553387
0.544208
0.535327
0.526728
0.518399
0.510327
0.5025
0.494909
0.487541
0.480388
0.47344
0.466689
0.460126
0.453744
0.447535
0.441493
0.43561
0.429882
0.424301
0.418862
0.413559
0.40839
0.403422
8.07067
6.69608
5.69886
4.94659
4.36123
3.89415
3.51363
3.19818
2.93277
2.70663
2.51179
2.34231
2.19362
2.06218
1.94521
1.84047
1.74618
1.66086
1.58332
1.51255
1.44771
1.38809
1.33311
1.28224
1.23504
1.19114
1.15021
1.11195
1.07612
1.04249
1.01087
0.981083
0.952977
0.926414
0.901272
0.87744
0.854819
0.833319
0.812861
0.79337
0.774781
0.757032
0.740069
0.72384
0.7083
0.693406
0.679119
0.665402
0.652222
0.639549
0.627355
0.615612
0.604297
0.593386
0.582858
0.572694
0.562876
0.553385
0.544207
0.535325
0.526727
0.518398
0.510326
0.502499
0.494907
0.48754
0.480387
0.473439
0.466688
0.460125
0.453743
0.447534
0.441492
0.43561
0.429881
0.4243
0.418861
0.413559
0.408389
0.403421
8.07067
6.69608
5.69886
4.94659
4.36123
3.89415
3.51363
3.19818
2.93277
2.70663
2.51179
2.34231
2.19362
2.06218
1.94521
1.84047
1.74618
1.66086
1.58332
1.51255
1.44771
1.38809
1.33311
1.28224
1.23504
1.19114
1.15021
1.11195
1.07612
1.04249
1.01087
0.981082
0.952976
0.926413
0.90127
0.877438
0.854817
0.833318
0.812859
0.793369
0.774779
0.757031
0.740068
0.723839
0.708299
0.693405
0.679117
0.6654
0.652221
0.639548
0.627354
0.615611
0.604296
0.593385
0.582857
0.572694
0.562875
0.553385
0.544206
0.535325
0.526726
0.518397
0.510325
0.502499
0.494907
0.487539
0.480386
0.473438
0.466687
0.460124
0.453742
0.447534
0.441492
0.435609
0.42988
0.424299
0.41886
0.413558
0.408389
0.403421
8.07067
6.69608
5.69886
4.94659
4.36123
3.89415
3.51363
3.19818
2.93278
2.70663
2.51179
2.34231
2.19362
2.06218
1.94521
1.84047
1.74618
1.66087
1.58332
1.51255
1.44771
1.3881
1.33311
1.28225
1.23505
1.19115
1.15022
1.11196
1.07613
1.0425
1.01088
0.98109
0.952984
0.926421
0.901279
0.877447
0.854826
0.833326
0.812868
0.793377
0.774787
0.757039
0.740075
0.723846
0.708306
0.693411
0.679124
0.665407
0.652227
0.639554
0.627359
0.615616
0.604301
0.593389
0.582862
0.572698
0.562879
0.553388
0.54421
0.535328
0.526729
0.5184
0.510328
0.502501
0.494909
0.487542
0.480388
0.47344
0.466689
0.460126
0.453744
0.447535
0.441493
0.43561
0.429881
0.4243
0.418861
0.413559
0.408389
0.403421
8.07067
6.69608
5.69886
4.94659
4.36123
3.89415
3.51363
3.19818
2.93278
2.70663
2.51179
2.34231
2.19362
2.06218
1.94521
1.84047
1.74618
1.66086
1.58332
1.51255
1.44771
1.3881
1.33311
1.28225
1.23505
1.19115
1.15022
1.11196
1.07613
1.0425
1.01088
0.981092
0.952986
0.926423
0.901281
0.877449
0.854828
0.833328
0.81287
0.793379
0.774789
0.75704
0.740077
0.723848
0.708308
0.693413
0.679125
0.665408
0.652228
0.639555
0.62736
0.615617
0.604302
0.593391
0.582863
0.572699
0.56288
0.553389
0.544211
0.535329
0.52673
0.518401
0.510329
0.502502
0.49491
0.487542
0.480389
0.473441
0.46669
0.460127
0.453745
0.447536
0.441493
0.435611
0.429882
0.424301
0.418862
0.413559
0.40839
0.403421
8.07067
6.69608
5.69886
4.94659
4.36123
3.89415
3.51363
3.19818
2.93277
2.70663
2.51179
2.34231
2.19362
2.06218
1.94521
1.84047
1.74618
1.66086
1.58332
1.51255
1.44771
1.3881
1.33311
1.28224
1.23505
1.19115
1.15022
1.11196
1.07613
1.0425
1.01088
0.981094
0.952988
0.926426
0.901284
0.877451
0.85483
0.833331
0.812872
0.793381
0.774792
0.757043
0.740079
0.72385
0.70831
0.693415
0.679127
0.66541
0.65223
0.639557
0.627362
0.615619
0.604304
0.593392
0.582865
0.572701
0.562882
0.553391
0.544212
0.53533
0.526731