/*--------------------------------*- C++ -*----------------------------------*\
| =========                 |                                                 |
| \\      /  F ield         | OpenFOAM: The Open Source CFD Toolbox           |
|  \\    /   O peration     | Version:  2512                                  |
|   \\  /    A nd           | Website:  www.openfoam.com                      |
|    \\/     M anipulation  |                                                 |
\*---------------------------------------------------------------------------*/
FoamFile
{
    version     2.0;
    format      ascii;
    arch        "LSB;label=32;scalar=64";
    class       volScalarField;
    location    "100";
    object      p;
}
// * * * * * * * * * * * * * * * * * * * * * * * * * * * * * * * * * * * * * //

dimensions      [0 2 -2 0 0 0 0];

internalField   nonuniform List<scalar> 
335663
(
2.84535e-05
2.84268e-05
2.8357e-05
2.82443e-05
2.80867e-05
2.78776e-05
2.76083e-05
2.72686e-05
2.68463e-05
2.63271e-05
2.56941e-05
2.4928e-05
2.40076e-05
2.29097e-05
2.16105e-05
2.00862e-05
1.8315e-05
1.6279e-05
1.39676e-05
1.13805e-05
8.53184e-06
5.45315e-06
2.19637e-06
-1.16494e-06
-4.53649e-06
-7.8071e-06
-1.08561e-05
-1.3564e-05
-1.5825e-05
-1.75587e-05
-1.87205e-05
-1.93052e-05
-1.93471e-05
-1.89126e-05
-1.80905e-05
-1.6979e-05
-1.56753e-05
-1.42671e-05
-1.2828e-05
-1.14153e-05
-1.00708e-05
-8.82183e-06
-7.68404e-06
-6.6638e-06
-5.76067e-06
-4.96951e-06
-4.28223e-06
-3.68907e-06
-3.17967e-06
-2.74372e-06
-2.37149e-06
-2.05406e-06
-1.78346e-06
-1.55265e-06
-1.35551e-06
-1.18674e-06
-1.04185e-06
-9.17044e-07
-8.09168e-07
-7.15615e-07
-6.34226e-07
-5.63181e-07
-5.00944e-07
-4.46192e-07
-3.97809e-07
-3.54846e-07
-3.16521e-07
-2.82177e-07
-2.51268e-07
-2.23306e-07
-1.97847e-07
-1.74454e-07
-1.52709e-07
-1.32193e-07
-1.12519e-07
-9.33293e-08
-7.43186e-08
-5.52542e-08
-3.57968e-08
-1.63419e-08
2.8462e-05
2.84354e-05
2.83663e-05
2.82547e-05
2.80985e-05
2.78913e-05
2.76243e-05
2.72875e-05
2.68686e-05
2.63532e-05
2.57245e-05
2.49632e-05
2.4048e-05
2.29555e-05
2.16615e-05
2.0142e-05
1.83745e-05
1.63408e-05
1.40292e-05
1.1439e-05
8.58318e-06
5.49288e-06
2.21973e-06
-1.16247e-06
-4.55849e-06
-7.85552e-06
-1.09306e-05
-1.36616e-05
-1.594e-05
-1.76835e-05
-1.88462e-05
-1.94234e-05
-1.94508e-05
-1.89972e-05
-1.81539e-05
-1.70214e-05
-1.56986e-05
-1.42743e-05
-1.28225e-05
-1.14006e-05
-1.00499e-05
-8.79741e-06
-7.65809e-06
-6.63782e-06
-5.73572e-06
-4.94627e-06
-4.26109e-06
-3.6702e-06
-3.16308e-06
-2.72932e-06
-2.35911e-06
-2.0435e-06
-1.77452e-06
-1.54513e-06
-1.34922e-06
-1.1815e-06
-1.03748e-06
-9.13401e-07
-8.06121e-07
-7.13061e-07
-6.32081e-07
-5.61385e-07
-4.99441e-07
-4.44939e-07
-3.96758e-07
-3.53955e-07
-3.15749e-07
-2.81494e-07
-2.50648e-07
-2.22737e-07
-1.9732e-07
-1.73973e-07
-1.52275e-07
-1.31813e-07
-1.12196e-07
-9.30653e-08
-7.41155e-08
-5.51297e-08
-3.57745e-08
-1.65606e-08
2.84785e-05
2.84524e-05
2.83846e-05
2.82751e-05
2.81219e-05
2.79183e-05
2.76559e-05
2.73246e-05
2.69123e-05
2.64045e-05
2.57844e-05
2.50326e-05
2.41276e-05
2.30458e-05
2.17623e-05
2.02523e-05
1.84925e-05
1.64632e-05
1.41515e-05
1.1555e-05
8.68535e-06
5.57223e-06
2.26681e-06
-1.15664e-06
-4.60112e-06
-7.95058e-06
-1.10776e-05
-1.38545e-05
-1.61678e-05
-1.79308e-05
-1.90955e-05
-1.96579e-05
-1.96565e-05
-1.91649e-05
-1.82794e-05
-1.71052e-05
-1.57445e-05
-1.42884e-05
-1.28115e-05
-1.13714e-05
-1.00086e-05
-8.749e-06
-7.60669e-06
-6.58642e-06
-5.68639e-06
-4.90035e-06
-4.21933e-06
-3.63294e-06
-3.13032e-06
-2.70085e-06
-2.33461e-06
-2.02259e-06
-1.7568e-06
-1.5302e-06
-1.3367e-06
-1.17104e-06
-1.02875e-06
-9.061e-07
-7.99999e-07
-7.07915e-07
-6.27753e-07
-5.57749e-07
-4.96395e-07
-4.42386e-07
-3.9461e-07
-3.52127e-07
-3.14165e-07
-2.80092e-07
-2.49383e-07
-2.2158e-07
-1.96259e-07
-1.73002e-07
-1.51398e-07
-1.31034e-07
-1.11517e-07
-9.24902e-08
-7.36496e-08
-5.47918e-08
-3.56071e-08
-1.67146e-08
2.85028e-05
2.84775e-05
2.84116e-05
2.83053e-05
2.81562e-05
2.79581e-05
2.77025e-05
2.73793e-05
2.69767e-05
2.64801e-05
2.58727e-05
2.51351e-05
2.42454e-05
2.31793e-05
2.19115e-05
2.04158e-05
1.86675e-05
1.66452e-05
1.43337e-05
1.17283e-05
8.83823e-06
5.69147e-06
2.33823e-06
-1.14656e-06
-4.6633e-06
-8.09115e-06
-1.12958e-05
-1.41418e-05
-1.65073e-05
-1.82995e-05
-1.94672e-05
-2.00071e-05
-1.99624e-05
-1.94138e-05
-1.84651e-05
-1.72285e-05
-1.58114e-05
-1.43079e-05
-1.2794e-05
-1.1327e-05
-9.9464e-06
-8.67666e-06
-7.53013e-06
-6.51005e-06
-5.61325e-06
-4.83239e-06
-4.15763e-06
-3.57793e-06
-3.08199e-06
-2.65888e-06
-2.2985e-06
-1.99177e-06
-1.73067e-06
-1.50819e-06
-1.31824e-06
-1.15561e-06
-1.01586e-06
-8.95307e-07
-7.90944e-07
-7.00303e-07
-6.21354e-07
-5.52379e-07
-4.91898e-07
-4.38623e-07
-3.91445e-07
-3.49434e-07
-3.11834e-07
-2.78032e-07
-2.47531e-07
-2.19895e-07
-1.9472e-07
-1.71603e-07
-1.50138e-07
-1.29913e-07
-1.10537e-07
-9.16526e-08
-7.296e-08
-5.42677e-08
-3.52928e-08
-1.6712e-08
2.85345e-05
2.85101e-05
2.84467e-05
2.83443e-05
2.82007e-05
2.80097e-05
2.77628e-05
2.74504e-05
2.70603e-05
2.65783e-05
2.59876e-05
2.52685e-05
2.43987e-05
2.33535e-05
2.21063e-05
2.06297e-05
1.88969e-05
1.68841e-05
1.45735e-05
1.19569e-05
9.04074e-06
5.85035e-06
2.43468e-06
-1.13065e-06
-4.74267e-06
-8.27424e-06
-1.1582e-05
-1.45197e-05
-1.69547e-05
-1.87856e-05
-1.99569e-05
-2.04666e-05
-2.03641e-05
-1.97392e-05
-1.87066e-05
-1.73876e-05
-1.58963e-05
-1.43309e-05
-1.27688e-05
-1.1267e-05
-9.86357e-06
-8.58096e-06
-7.42932e-06
-6.40981e-06
-5.5175e-06
-4.7436e-06
-4.07715e-06
-3.50628e-06
-3.0191e-06
-2.60431e-06
-2.25157e-06
-1.95172e-06
-1.69672e-06
-1.47958e-06
-1.29425e-06
-1.13554e-06
-9.99074e-07
-8.81252e-07
-7.79145e-07
-6.90383e-07
-6.13016e-07
-5.45385e-07
-4.86046e-07
-4.33724e-07
-3.87323e-07
-3.45924e-07
-3.08792e-07
-2.75346e-07
-2.45119e-07
-2.17708e-07
-1.92733e-07
-1.69805e-07
-1.48525e-07
-1.28483e-07
-1.09289e-07
-9.05843e-08
-7.20749e-08
-5.35801e-08
-3.48434e-08
-1.6561e-08
2.85726e-05
2.85494e-05
2.84891e-05
2.83915e-05
2.82545e-05
2.80719e-05
2.78357e-05
2.75361e-05
2.71613e-05
2.66972e-05
2.61267e-05
2.54301e-05
2.45847e-05
2.35651e-05
2.23433e-05
2.08904e-05
1.91771e-05
1.71768e-05
1.4868e-05
1.22388e-05
9.2917e-06
6.04875e-06
2.55716e-06
-1.10678e-06
-4.83613e-06
-8.49603e-06
-1.19319e-05
-1.49838e-05
-1.75053e-05
-1.93843e-05
-2.05599e-05
-2.10314e-05
-2.08561e-05
-2.01362e-05
-1.89993e-05
-1.75784e-05
-1.59961e-05
-1.4355e-05
-1.27345e-05
-1.11909e-05
-9.76036e-06
-8.46272e-06
-7.30542e-06
-6.28711e-06
-5.40066e-06
-4.63551e-06
-3.97938e-06
-3.41939e-06
-2.94294e-06
-2.53828e-06
-2.19484e-06
-1.90333e-06
-1.65572e-06
-1.44504e-06
-1.26528e-06
-1.1113e-06
-9.78803e-07
-8.64269e-07
-7.64884e-07
-6.78392e-07
-6.0294e-07
-5.36939e-07
-4.78981e-07
-4.27812e-07
-3.82345e-07
-3.41681e-07
-3.05112e-07
-2.72095e-07
-2.42206e-07
-2.15076e-07
-1.90353e-07
-1.67664e-07
-1.46616e-07
-1.26802e-07
-1.07829e-07
-8.93419e-08
-7.10495e-08
-5.27824e-08
-3.43087e-08
-1.63252e-08
2.86163e-05
2.85945e-05
2.85377e-05
2.84456e-05
2.83162e-05
2.81435e-05
2.79195e-05
2.76347e-05
2.72776e-05
2.68339e-05
2.62869e-05
2.56165e-05
2.47996e-05
2.38098e-05
2.26181e-05
2.11932e-05
1.95034e-05
1.75187e-05
1.52133e-05
1.25708e-05
9.58892e-06
6.2858e-06
2.7063e-06
-1.07278e-06
-4.94011e-06
-8.75177e-06
-1.23398e-05
-1.55277e-05
-1.81526e-05
-2.00888e-05
-2.12688e-05
-2.16939e-05
-2.1431e-05
-2.05974e-05
-1.93366e-05
-1.77956e-05
-1.61065e-05
-1.43776e-05
-1.26898e-05
-1.10984e-05
-9.63728e-06
-8.32312e-06
-7.1601e-06
-6.14385e-06
-5.26472e-06
-4.51014e-06
-3.86625e-06
-3.31905e-06
-2.85513e-06
-2.46225e-06
-2.12957e-06
-1.8477e-06
-1.60861e-06
-1.40537e-06
-1.23202e-06
-1.08348e-06
-9.55526e-07
-8.44759e-07
-7.48494e-07
-6.64607e-07
-5.91357e-07
-5.2723e-07
-4.7086e-07
-4.21012e-07
-3.76613e-07
-3.36786e-07
-3.0086e-07
-2.68336e-07
-2.38838e-07
-2.1204e-07
-1.87619e-07
-1.65219e-07
-1.4445e-07
-1.24907e-07
-1.06195e-07
-8.79599e-08
-6.99153e-08
-5.19022e-08
-3.37112e-08
-1.60323e-08
2.86647e-05
2.86444e-05
2.85914e-05
2.85055e-05
2.83845e-05
2.82226e-05
2.80122e-05
2.77439e-05
2.74064e-05
2.69857e-05
2.64649e-05
2.58238e-05
2.50389e-05
2.40828e-05
2.29251e-05
2.15325e-05
1.98702e-05
1.79041e-05
1.56042e-05
1.29485e-05
9.92933e-06
6.56002e-06
2.88245e-06
-1.02638e-06
-5.05041e-06
-9.0356e-06
-1.27985e-05
-1.61435e-05
-1.88878e-05
-2.089e-05
-2.20744e-05
-2.24447e-05
-2.20797e-05
-2.11143e-05
-1.97111e-05
-1.8033e-05
-1.62233e-05
-1.43959e-05
-1.26333e-05
-1.09895e-05
-9.49538e-06
-8.16392e-06
-6.99553e-06
-5.98244e-06
-5.11218e-06
-4.36989e-06
-3.74003e-06
-3.20734e-06
-2.75755e-06
-2.37788e-06
-2.05722e-06
-1.78609e-06
-1.55647e-06
-1.36148e-06
-1.19524e-06
-1.05271e-06
-9.29784e-07
-8.23173e-07
-7.30349e-07
-6.49339e-07
-5.78526e-07
-5.16475e-07
-4.61864e-07
-4.13474e-07
-3.70251e-07
-3.31342e-07
-2.9612e-07
-2.6414e-07
-2.35081e-07
-2.08663e-07
-1.84592e-07
-1.62527e-07
-1.42084e-07
-1.22854e-07
-1.0444e-07
-8.64883e-08
-6.87181e-08
-5.09803e-08
-3.30852e-08
-1.57118e-08
2.87166e-05
2.86979e-05
2.8649e-05
2.85697e-05
2.84577e-05
2.83075e-05
2.81117e-05
2.78612e-05
2.75448e-05
2.71489e-05
2.66565e-05
2.60474e-05
2.52974e-05
2.43784e-05
2.32583e-05
2.19016e-05
2.02703e-05
1.83264e-05
1.60343e-05
1.33663e-05
1.03086e-05
6.86882e-06
3.0852e-06
-9.65549e-07
-5.16255e-06
-9.34073e-06
-1.32993e-05
-1.68208e-05
-1.96997e-05
-2.17758e-05
-2.29644e-05
-2.32717e-05
-2.27905e-05
-2.16765e-05
-2.01139e-05
-1.82838e-05
-1.63416e-05
-1.44072e-05
-1.25641e-05
-1.08647e-05
-9.33624e-06
-7.98741e-06
-6.81445e-06
-5.80583e-06
-4.94597e-06
-4.21762e-06
-3.60339e-06
-3.08669e-06
-2.65238e-06
-2.28709e-06
-1.97944e-06
-1.71992e-06
-1.50052e-06
-1.31443e-06
-1.15582e-06
-1.01975e-06
-9.02201e-07
-8.00032e-07
-7.10886e-07
-6.32955e-07
-5.64755e-07
-5.04935e-07
-4.5221e-07
-4.05382e-07
-3.6341e-07
-3.25474e-07
-2.90998e-07
-2.59598e-07
-2.31014e-07
-2.05014e-07
-1.81337e-07
-1.59653e-07
-1.39578e-07
-1.20698e-07
-1.02614e-07
-8.49709e-08
-6.74945e-08
-5.00449e-08
-3.24504e-08
-1.53749e-08
2.87708e-05
2.87537e-05
2.87092e-05
2.86368e-05
2.85342e-05
2.83962e-05
2.82157e-05
2.79838e-05
2.76898e-05
2.73199e-05
2.68575e-05
2.62822e-05
2.55693e-05
2.46899e-05
2.36103e-05
2.22927e-05
2.06959e-05
1.87771e-05
1.64956e-05
1.38171e-05
1.07209e-05
7.2083e-06
3.31312e-06
-8.88792e-07
-5.2719e-06
-9.65948e-06
-1.38319e-05
-1.75472e-05
-2.05741e-05
-2.27314e-05
-2.39235e-05
-2.416e-05
-2.35497e-05
-2.22718e-05
-2.05352e-05
-1.85409e-05
-1.64569e-05
-1.44091e-05
-1.2482e-05
-1.07253e-05
-9.16218e-06
-7.79664e-06
-6.62027e-06
-5.61754e-06
-4.76957e-06
-4.05659e-06
-3.45932e-06
-2.95982e-06
-2.54199e-06
-2.19194e-06
-1.89805e-06
-1.65074e-06
-1.44207e-06
-1.26532e-06
-1.1147e-06
-9.85379e-07
-8.7343e-07
-7.75881e-07
-6.9056e-07
-6.1584e-07
-5.50372e-07
-4.92887e-07
-4.42136e-07
-3.96934e-07
-3.56257e-07
-3.19323e-07
-2.85612e-07
-2.54811e-07
-2.26726e-07
-2.01178e-07
-1.77933e-07
-1.5667e-07
-1.37002e-07
-1.18506e-07
-1.00777e-07
-8.34605e-08
-6.62879e-08
-4.91296e-08
-3.18297e-08
-1.50336e-08
2.88261e-05
2.88106e-05
2.87705e-05
2.87051e-05
2.86122e-05
2.84867e-05
2.83217e-05
2.8109e-05
2.78378e-05
2.74947e-05
2.70633e-05
2.65228e-05
2.58485e-05
2.50104e-05
2.39734e-05
2.26973e-05
2.11375e-05
1.92468e-05
1.69786e-05
1.4292e-05
1.11586e-05
7.57296e-06
3.56349e-06
-7.95455e-07
-5.37398e-06
-9.98341e-06
-1.4384e-05
-1.83073e-05
-2.14936e-05
-2.3738e-05
-2.49329e-05
-2.50916e-05
-2.43409e-05
-2.28866e-05
-2.09644e-05
-1.87967e-05
-1.65647e-05
-1.44e-05
-1.23873e-05
-1.05733e-05
-8.97635e-06
-7.59537e-06
-6.41705e-06
-5.42164e-06
-4.5869e-06
-3.89047e-06
-3.31117e-06
-2.82968e-06
-2.42901e-06
-2.09472e-06
-1.81499e-06
-1.58022e-06
-1.38256e-06
-1.21535e-06
-1.07291e-06
-9.50446e-07
-8.44183e-07
-7.51316e-07
-6.69874e-07
-5.98418e-07
-5.35737e-07
-4.80639e-07
-4.31904e-07
-3.88352e-07
-3.48978e-07
-3.13042e-07
-2.80089e-07
-2.49887e-07
-2.22312e-07
-1.97236e-07
-1.74454e-07
-1.53647e-07
-1.34419e-07
-1.16334e-07
-9.89779e-08
-8.19966e-08
-6.51279e-08
-4.82528e-08
-3.1231e-08
-1.46875e-08
2.88811e-05
2.88673e-05
2.88316e-05
2.87732e-05
2.86898e-05
2.85767e-05
2.84274e-05
2.82337e-05
2.79853e-05
2.76692e-05
2.72688e-05
2.67636e-05
2.61283e-05
2.53322e-05
2.43389e-05
2.31057e-05
2.15848e-05
1.97246e-05
1.74724e-05
1.47804e-05
1.16125e-05
7.95549e-06
3.83195e-06
-6.86028e-07
-5.46475e-06
-1.03036e-05
-1.4942e-05
-1.90835e-05
-2.24374e-05
-2.47732e-05
-2.59701e-05
-2.60453e-05
-2.51456e-05
-2.35056e-05
-2.13902e-05
-1.90439e-05
-1.66613e-05
-1.43791e-05
-1.22816e-05
-1.04117e-05
-8.78276e-06
-7.38813e-06
-6.20947e-06
-5.22273e-06
-4.40228e-06
-3.72321e-06
-3.16247e-06
-2.69941e-06
-2.31614e-06
-1.99776e-06
-1.73225e-06
-1.51006e-06
-1.32341e-06
-1.16575e-06
-1.03144e-06
-9.15805e-07
-8.15173e-07
-7.26933e-07
-6.49329e-07
-5.81115e-07
-5.21217e-07
-4.68508e-07
-4.21785e-07
-3.79871e-07
-3.41775e-07
-3.06805e-07
-2.74582e-07
-2.44957e-07
-2.17887e-07
-1.93294e-07
-1.70995e-07
-1.50671e-07
-1.31908e-07
-1.14253e-07
-9.72796e-08
-8.06329e-08
-6.40578e-08
-4.74471e-08
-3.06763e-08
-1.43477e-08
2.89346e-05
2.89225e-05
2.8891e-05
2.88393e-05
2.87653e-05
2.86643e-05
2.85301e-05
2.8355e-05
2.81289e-05
2.7839e-05
2.7469e-05
2.69985e-05
2.64017e-05
2.56474e-05
2.46976e-05
2.35078e-05
2.20268e-05
2.01985e-05
1.79647e-05
1.52702e-05
1.20713e-05
8.34666e-06
4.11237e-06
-5.62414e-07
-5.54088e-06
-1.06109e-05
-1.5491e-05
-1.98554e-05
-2.33815e-05
-2.58108e-05
-2.70087e-05
-2.69966e-05
-2.59427e-05
-2.41124e-05
-2.1801e-05
-1.92756e-05
-1.67438e-05
-1.43467e-05
-1.21673e-05
-1.02446e-05
-8.58632e-06
-7.18023e-06
-6.00285e-06
-5.0259e-06
-4.22043e-06
-3.55908e-06
-3.01702e-06
-2.57231e-06
-2.20627e-06
-1.90352e-06
-1.65195e-06
-1.44204e-06
-1.26614e-06
-1.11778e-06
-9.91388e-07
-8.82351e-07
-7.87147e-07
-7.03358e-07
-6.29452e-07
-5.64378e-07
-5.0719e-07
-4.56816e-07
-4.12055e-07
-3.71724e-07
-3.34847e-07
-3.00782e-07
-2.69233e-07
-2.40146e-07
-2.13555e-07
-1.89438e-07
-1.6763e-07
-1.47803e-07
-1.2952e-07
-1.12304e-07
-9.57146e-08
-7.93934e-08
-6.30934e-08
-4.67198e-08
-3.01649e-08
-1.40088e-08
2.89853e-05
2.89747e-05
2.89473e-05
2.8902e-05
2.88368e-05
2.87472e-05
2.86274e-05
2.84698e-05
2.82649e-05
2.8e-05
2.76591e-05
2.72217e-05
2.6662e-05
2.59479e-05
2.50404e-05
2.3893e-05
2.24516e-05
2.06558e-05
1.84419e-05
1.5748e-05
1.25222e-05
8.73546e-06
4.3968e-06
-4.28102e-07
-5.60011e-06
-1.08964e-05
-1.60149e-05
-2.06008e-05
-2.42985e-05
-2.68211e-05
-2.8019e-05
-2.79184e-05
-2.67097e-05
-2.46901e-05
-2.21855e-05
-1.94857e-05
-1.68103e-05
-1.4304e-05
-1.20482e-05
-1.0077e-05
-8.39271e-06
-6.9775e-06
-5.80288e-06
-4.83647e-06
-4.0462e-06
-3.40241e-06
-2.87859e-06
-2.45167e-06
-2.10217e-06
-1.81438e-06
-1.57609e-06
-1.37787e-06
-1.21218e-06
-1.07264e-06
-9.5374e-07
-8.50923e-07
-7.60809e-07
-6.81186e-07
-6.10748e-07
-5.48637e-07
-4.94025e-07
-4.45879e-07
-4.02989e-07
-3.64152e-07
-3.28407e-07
-2.95164e-07
-2.64216e-07
-2.35606e-07
-2.09455e-07
-1.85791e-07
-1.64464e-07
-1.45132e-07
-1.27331e-07
-1.10553e-07
-9.43377e-08
-7.83246e-08
-6.22732e-08
-4.61019e-08
-2.97208e-08
-1.36864e-08
2.90321e-05
2.9023e-05
2.89992e-05
2.89598e-05
2.89026e-05
2.88235e-05
2.87169e-05
2.85755e-05
2.83901e-05
2.81483e-05
2.78342e-05
2.74275e-05
2.69021e-05
2.62256e-05
2.53579e-05
2.42507e-05
2.28472e-05
2.10833e-05
1.88901e-05
1.61991e-05
1.29512e-05
9.10933e-06
4.67563e-06
-2.88177e-07
-5.64141e-06
-1.11516e-05
-1.64974e-05
-2.12959e-05
-2.5159e-05
-2.77715e-05
-2.89688e-05
-2.87816e-05
-2.74229e-05
-2.52213e-05
-2.2533e-05
-1.96692e-05
-1.68603e-05
-1.42538e-05
-1.19287e-05
-9.91468e-06
-8.20828e-06
-6.78632e-06
-5.61563e-06
-4.66003e-06
-3.88461e-06
-3.25762e-06
-2.75106e-06
-2.3408e-06
-2.0067e-06
-1.73275e-06
-1.5067e-06
-1.31925e-06
-1.16296e-06
-1.03154e-06
-9.19504e-07
-8.22361e-07
-7.36866e-07
-6.61011e-07
-5.93716e-07
-5.34311e-07
-4.8207e-07
-4.35987e-07
-3.94826e-07
-3.57359e-07
-3.2263e-07
-2.90105e-07
-2.59668e-07
-2.31462e-07
-2.05692e-07
-1.82439e-07
-1.61565e-07
-1.42709e-07
-1.25373e-07
-1.09016e-07
-9.31563e-08
-7.74255e-08
-6.15904e-08
-4.55826e-08
-2.93308e-08
-1.33686e-08
2.9074e-05
2.90661e-05
2.90456e-05
2.90113e-05
2.89613e-05
2.88914e-05
2.87965e-05
2.86695e-05
2.85013e-05
2.82799e-05
2.79897e-05
2.76104e-05
2.71158e-05
2.64731e-05
2.56413e-05
2.45706e-05
2.3202e-05
2.14679e-05
1.92949e-05
1.66088e-05
1.33436e-05
9.45473e-06
4.93798e-06
-1.49127e-07
-5.66508e-06
-1.13692e-05
-1.69227e-05
-2.19166e-05
-2.59324e-05
-2.86279e-05
-2.98242e-05
-2.95562e-05
-2.80583e-05
-2.56894e-05
-2.28338e-05
-1.9822e-05
-1.68942e-05
-1.41995e-05
-1.18145e-05
-9.76398e-06
-8.03956e-06
-6.61307e-06
-5.44705e-06
-4.50197e-06
-3.74042e-06
-3.12885e-06
-2.63796e-06
-2.2427e-06
-1.92238e-06
-1.66075e-06
-1.44558e-06
-1.26768e-06
-1.11974e-06
-9.95518e-07
-8.89545e-07
-7.97391e-07
-7.15935e-07
-6.43363e-07
-5.78815e-07
-5.21792e-07
-4.7166e-07
-4.27423e-07
-3.87809e-07
-3.51557e-07
-3.17711e-07
-2.8579e-07
-2.55764e-07
-2.27879e-07
-2.02423e-07
-1.79524e-07
-1.59055e-07
-1.40636e-07
-1.2373e-07
-1.07761e-07
-9.2223e-08
-7.67393e-08
-6.10816e-08
-4.51942e-08
-2.90238e-08
-1.30788e-08
2.91099e-05
2.91031e-05
2.90853e-05
2.90554e-05
2.90113e-05
2.89493e-05
2.88642e-05
2.87493e-05
2.85957e-05
2.83916e-05
2.81217e-05
2.77655e-05
2.72972e-05
2.66833e-05
2.58823e-05
2.48431e-05
2.35048e-05
2.17972e-05
1.96428e-05
1.69626e-05
1.36846e-05
9.75793e-06
5.17237e-06
-1.83945e-08
-5.67263e-06
-1.15429e-05
-1.72757e-05
-2.24395e-05
-2.65886e-05
-2.93566e-05
-3.05517e-05
-3.02127e-05
-2.85931e-05
-2.6079e-05
-2.30794e-05
-1.99417e-05
-1.69136e-05
-1.41455e-05
-1.17112e-05
-9.63146e-06
-7.89323e-06
-6.4641e-06
-5.30298e-06
-4.36752e-06
-3.61823e-06
-3.02008e-06
-2.5427e-06
-2.16027e-06
-1.85167e-06
-1.60047e-06
-1.39447e-06
-1.22462e-06
-1.08372e-06
-9.65562e-07
-8.64686e-07
-7.767e-07
-6.98594e-07
-6.28736e-07
-5.66462e-07
-5.11427e-07
-4.63075e-07
-4.20408e-07
-3.82111e-07
-3.46883e-07
-3.13766e-07
-2.82323e-07
-2.52607e-07
-2.24955e-07
-1.99735e-07
-1.7712e-07
-1.5699e-07
-1.38946e-07
-1.22415e-07
-1.06784e-07
-9.15206e-08
-7.62395e-08
-6.07154e-08
-4.49036e-08
-2.87686e-08
-1.27941e-08
2.91391e-05
2.91331e-05
2.91175e-05
2.9091e-05
2.90517e-05
2.89958e-05
2.89185e-05
2.88131e-05
2.8671e-05
2.84806e-05
2.82266e-05
2.78888e-05
2.74412e-05
2.68502e-05
2.60738e-05
2.50599e-05
2.37462e-05
2.20602e-05
1.99216e-05
1.72473e-05
1.39608e-05
1.00059e-05
5.36765e-06
9.63123e-08
-5.66647e-06
-1.16683e-05
-1.75438e-05
-2.28435e-05
-2.70997e-05
-2.99262e-05
-3.11203e-05
-3.0724e-05
-2.90068e-05
-2.63768e-05
-2.32632e-05
-2.00267e-05
-1.69207e-05
-1.40961e-05
-1.16245e-05
-9.52313e-06
-7.77522e-06
-6.34497e-06
-5.18845e-06
-4.26111e-06
-3.52187e-06
-2.93457e-06
-2.46801e-06
-2.0958e-06
-1.79647e-06
-1.55348e-06
-1.3547e-06
-1.19118e-06
-1.05582e-06
-9.42429e-07
-8.45551e-07
-7.60816e-07
-6.85304e-07
-6.17537e-07
-5.57018e-07
-5.03533e-07
-4.56584e-07
-4.15166e-07
-3.77921e-07
-3.43503e-07
-3.10949e-07
-2.79858e-07
-2.50352e-07
-2.22849e-07
-1.97785e-07
-1.75374e-07
-1.55504e-07
-1.37755e-07
-1.21523e-07
-1.0616e-07
-9.11101e-08
-7.59763e-08
-6.05351e-08
-4.47506e-08
-2.86034e-08
-1.25483e-08
2.91609e-05
2.91555e-05
2.91414e-05
2.91174e-05
2.90814e-05
2.90299e-05
2.8958e-05
2.88593e-05
2.87253e-05
2.85445e-05
2.83017e-05
2.79769e-05
2.75439e-05
2.69691e-05
2.621e-05
2.52142e-05
2.39181e-05
2.22478e-05
2.0121e-05
1.7452e-05
1.41607e-05
1.01875e-05
5.514e-06
1.87904e-07
-5.64936e-06
-1.1742e-05
-1.77168e-05
-2.31114e-05
-2.74427e-05
-3.03103e-05
-3.15039e-05
-3.10676e-05
-2.92825e-05
-2.65723e-05
-2.33804e-05
-2.00764e-05
-1.69179e-05
-1.40557e-05
-1.15595e-05
-9.44436e-06
-7.69074e-06
-6.26051e-06
-5.1078e-06
-4.18656e-06
-3.45464e-06
-2.87513e-06
-2.41627e-06
-2.05128e-06
-1.75846e-06
-1.52122e-06
-1.32746e-06
-1.16834e-06
-1.03684e-06
-9.26766e-07
-8.32663e-07
-7.50167e-07
-6.76426e-07
-6.10075e-07
-5.50745e-07
-4.98321e-07
-4.52348e-07
-4.1181e-07
-3.75308e-07
-3.4146e-07
-3.0929e-07
-2.78421e-07
-2.49028e-07
-2.21593e-07
-1.96606e-07
-1.74314e-07
-1.54611e-07
-1.37063e-07
-1.21037e-07
-1.05858e-07
-9.09475e-08
-7.58978e-08
-6.04849e-08
-4.46799e-08
-2.84775e-08
-1.23055e-08
2.9175e-05
2.91699e-05
2.91567e-05
2.9134e-05
2.90999e-05
2.90507e-05
2.89818e-05
2.88868e-05
2.87573e-05
2.85817e-05
2.83451e-05
2.80274e-05
2.76024e-05
2.70365e-05
2.62871e-05
2.53011e-05
2.40149e-05
2.23536e-05
2.02339e-05
1.75685e-05
1.42759e-05
1.02946e-05
5.604e-06
2.50802e-07
-5.62385e-06
-1.17625e-05
-1.77879e-05
-2.3231e-05
-2.7601e-05
-3.04899e-05
-3.16835e-05
-3.12273e-05
-2.94083e-05
-2.66583e-05
-2.34277e-05
-2.0091e-05
-1.69071e-05
-1.40272e-05
-1.15199e-05
-9.39886e-06
-7.64333e-06
-6.21395e-06
-5.06387e-06
-4.14631e-06
-3.41862e-06
-2.8435e-06
-2.38892e-06
-2.02791e-06
-1.73864e-06
-1.50449e-06
-1.31343e-06
-1.15668e-06
-1.02725e-06
-9.18967e-07
-8.2635e-07
-7.4504e-07
-6.72219e-07
-6.06594e-07
-5.47872e-07
-4.96e-07
-4.5055e-07
-4.10496e-07
-3.74408e-07
-3.40873e-07
-3.08902e-07
-2.78129e-07
-2.48762e-07
-2.21322e-07
-1.96337e-07
-1.74076e-07
-1.5444e-07
-1.36985e-07
-1.21058e-07
-1.05964e-07
-9.11064e-08
-7.60683e-08
-6.06233e-08
-4.47467e-08
-2.84441e-08
-1.21123e-08
2.91811e-05
2.91761e-05
2.91629e-05
2.91405e-05
2.91067e-05
2.90579e-05
2.89895e-05
2.88952e-05
2.87663e-05
2.85916e-05
2.83559e-05
2.80392e-05
2.76154e-05
2.70508e-05
2.63027e-05
2.53183e-05
2.40337e-05
2.23742e-05
2.02563e-05
1.75928e-05
1.4302e-05
1.03224e-05
5.63352e-06
2.81806e-07
-5.59157e-06
-1.17292e-05
-1.77537e-05
-2.31964e-05
-2.75661e-05
-3.04553e-05
-3.16497e-05
-3.1195e-05
-2.93784e-05
-2.66313e-05
-2.3404e-05
-2.00706e-05
-1.68899e-05
-1.40127e-05
-1.15078e-05
-9.3888e-06
-7.63504e-06
-6.20715e-06
-5.05833e-06
-4.14184e-06
-3.41507e-06
-2.84075e-06
-2.38686e-06
-2.02642e-06
-1.7376e-06
-1.50381e-06
-1.31304e-06
-1.15653e-06
-1.02731e-06
-9.19213e-07
-8.2674e-07
-7.45522e-07
-6.72748e-07
-6.07137e-07
-5.48425e-07
-4.96578e-07
-4.51175e-07
-4.11186e-07
-3.75162e-07
-3.4167e-07
-3.09709e-07
-2.7891e-07
-2.49486e-07
-2.21977e-07
-1.96923e-07
-1.74608e-07
-1.54937e-07
-1.37462e-07
-1.21521e-07
-1.06407e-07
-9.15117e-08
-7.64106e-08
-6.08738e-08
-4.48781e-08
-2.84379e-08
-1.19218e-08
2.91791e-05
2.91738e-05
2.91602e-05
2.91369e-05
2.91018e-05
2.90515e-05
2.89811e-05
2.88842e-05
2.87523e-05
2.85739e-05
2.83338e-05
2.80121e-05
2.75826e-05
2.70116e-05
2.62568e-05
2.52655e-05
2.39743e-05
2.23093e-05
2.01879e-05
1.75244e-05
1.42385e-05
1.02707e-05
5.60215e-06
2.80483e-07
-5.55299e-06
-1.16425e-05
-1.7615e-05
-2.3008e-05
-2.73387e-05
-3.02071e-05
-3.14031e-05
-3.09714e-05
-2.91932e-05
-2.64918e-05
-2.33096e-05
-2.00155e-05
-1.6866e-05
-1.4012e-05
-1.15231e-05
-9.41407e-06
-7.66573e-06
-6.23997e-06
-5.09103e-06
-4.173e-06
-3.44386e-06
-2.86676e-06
-2.40997e-06
-2.04671e-06
-1.75528e-06
-1.51912e-06
-1.32624e-06
-1.16787e-06
-1.03702e-06
-9.27513e-07
-8.33854e-07
-7.51651e-07
-6.78062e-07
-6.11771e-07
-5.52481e-07
-5.00136e-07
-4.54309e-07
-4.13964e-07
-3.77654e-07
-3.43937e-07
-3.11798e-07
-2.80852e-07
-2.51295e-07
-2.23653e-07
-1.98465e-07
-1.76011e-07
-1.562e-07
-1.38589e-07
-1.22515e-07
-1.07269e-07
-9.2241e-08
-7.69982e-08
-6.13069e-08
-4.51426e-08
-2.85243e-08
-1.17898e-08
2.91692e-05
2.91635e-05
2.91486e-05
2.91233e-05
2.90856e-05
2.90317e-05
2.89568e-05
2.88544e-05
2.87157e-05
2.85293e-05
2.82798e-05
2.79472e-05
2.75053e-05
2.69207e-05
2.61511e-05
2.51448e-05
2.38392e-05
2.21618e-05
2.00321e-05
1.7367e-05
1.40895e-05
1.01433e-05
5.5132e-06
2.4914e-07
-5.50742e-06
-1.15041e-05
-1.73759e-05
-2.26731e-05
-2.69285e-05
-2.97563e-05
-3.09546e-05
-3.05659e-05
-2.886e-05
-2.62442e-05
-2.31465e-05
-1.99259e-05
-1.68349e-05
-1.40238e-05
-1.1564e-05
-9.47277e-06
-7.7336e-06
-6.31076e-06
-5.16051e-06
-4.2385e-06
-3.50387e-06
-2.92056e-06
-2.45744e-06
-2.0881e-06
-1.79108e-06
-1.54991e-06
-1.35259e-06
-1.19029e-06
-1.05601e-06
-9.43548e-07
-8.474e-07
-7.63154e-07
-6.87906e-07
-6.20253e-07
-5.59809e-07
-5.06457e-07
-4.59744e-07
-4.18636e-07
-3.81699e-07
-3.47496e-07
-3.14999e-07
-2.8379e-07
-2.54028e-07
-2.262e-07
-2.00816e-07
-1.78146e-07
-1.58099e-07
-1.40242e-07
-1.23924e-07
-1.08444e-07
-9.31931e-08
-7.77367e-08
-6.18352e-08
-4.54603e-08
-2.8633e-08
-1.16648e-08
2.91517e-05
2.91453e-05
2.91286e-05
2.91003e-05
2.90585e-05
2.89992e-05
2.89176e-05
2.88067e-05
2.86579e-05
2.84594e-05
2.81957e-05
2.78466e-05
2.73861e-05
2.6781e-05
2.59896e-05
2.49608e-05
2.36337e-05
2.19379e-05
1.97958e-05
1.71281e-05
1.38624e-05
9.94774e-06
5.37332e-06
1.92504e-07
-5.45324e-06
-1.13167e-05
-1.70444e-05
-2.22049e-05
-2.63531e-05
-2.91232e-05
-3.03242e-05
-2.99957e-05
-2.83915e-05
-2.58966e-05
-2.29184e-05
-1.98023e-05
-1.67946e-05
-1.40448e-05
-1.16267e-05
-9.56102e-06
-7.83489e-06
-6.41604e-06
-5.26366e-06
-4.33565e-06
-3.59279e-06
-3.00022e-06
-2.52764e-06
-2.14923e-06
-1.84388e-06
-1.59525e-06
-1.39132e-06
-1.2232e-06
-1.08381e-06
-9.6694e-07
-8.67091e-07
-7.79814e-07
-7.02113e-07
-6.32454e-07
-5.70315e-07
-5.1548e-07
-4.67452e-07
-4.25202e-07
-3.8732e-07
-3.52386e-07
-3.19357e-07
-2.87774e-07
-2.57734e-07
-2.29661e-07
-2.0402e-07
-1.81058e-07
-1.60683e-07
-1.42476e-07
-1.25808e-07
-1.09994e-07
-9.4435e-08
-7.86953e-08
-6.25287e-08
-4.59009e-08
-2.88303e-08
-1.16014e-08
2.91273e-05
2.91199e-05
2.91007e-05
2.90686e-05
2.90213e-05
2.8955e-05
2.88644e-05
2.87426e-05
2.85805e-05
2.83661e-05
2.80839e-05
2.77135e-05
2.72289e-05
2.65972e-05
2.57775e-05
2.47199e-05
2.33653e-05
2.16461e-05
1.94885e-05
1.68181e-05
1.35684e-05
9.69447e-06
5.19162e-06
1.16937e-07
-5.38845e-06
-1.10841e-05
-1.66314e-05
-2.16216e-05
-2.56367e-05
-2.83352e-05
-2.95391e-05
-2.92844e-05
-2.78055e-05
-2.54602e-05
-2.26309e-05
-1.96458e-05
-1.67432e-05
-1.40713e-05
-1.17065e-05
-9.67377e-06
-7.96464e-06
-6.55123e-06
-5.39636e-06
-4.46081e-06
-3.70747e-06
-3.10303e-06
-2.61828e-06
-2.22818e-06
-1.91205e-06
-1.65376e-06
-1.44125e-06
-1.26556e-06
-1.11954e-06
-9.96953e-07
-8.92293e-07
-8.01072e-07
-7.2018e-07
-6.47915e-07
-5.83579e-07
-5.26825e-07
-4.77095e-07
-4.33365e-07
-3.94255e-07
-3.58368e-07
-3.2465e-07
-2.92588e-07
-2.62199e-07
-2.33829e-07
-2.07876e-07
-1.84556e-07
-1.63775e-07
-1.45132e-07
-1.28027e-07
-1.11798e-07
-9.58613e-08
-7.97816e-08
-6.33061e-08
-4.63922e-08
-2.90536e-08
-1.1553e-08
2.90966e-05
2.90881e-05
2.90659e-05
2.9029e-05
2.89752e-05
2.89004e-05
2.8799e-05
2.86639e-05
2.84857e-05
2.82523e-05
2.79478e-05
2.75518e-05
2.70384e-05
2.63751e-05
2.55219e-05
2.44302e-05
2.30434e-05
2.12972e-05
1.91222e-05
1.64498e-05
1.32203e-05
9.39601e-06
4.97872e-06
2.9534e-08
-5.31131e-06
-1.08117e-05
-1.61505e-05
-2.0945e-05
-2.48077e-05
-2.74242e-05
-2.8631e-05
-2.84596e-05
-2.7123e-05
-2.49489e-05
-2.2291e-05
-1.9458e-05
-1.66786e-05
-1.4099e-05
-1.17979e-05
-9.80494e-06
-8.11685e-06
-6.71066e-06
-5.55345e-06
-4.6094e-06
-3.84395e-06
-3.22561e-06
-2.72651e-06
-2.32253e-06
-1.99358e-06
-1.72373e-06
-1.50098e-06
-1.31624e-06
-1.16228e-06
-1.03285e-06
-9.22416e-07
-8.26451e-07
-7.41715e-07
-6.6631e-07
-5.99334e-07
-5.40282e-07
-4.88521e-07
-4.43023e-07
-4.02444e-07
-3.65412e-07
-3.3086e-07
-2.98216e-07
-2.67406e-07
-2.3868e-07
-2.12361e-07
-1.88623e-07
-1.67369e-07
-1.48218e-07
-1.30602e-07
-1.13891e-07
-9.75163e-08
-8.10468e-08
-6.42222e-08
-4.699e-08
-2.9356e-08
-1.15626e-08
2.90605e-05
2.90507e-05
2.90251e-05
2.89827e-05
2.89214e-05
2.88368e-05
2.8723e-05
2.85728e-05
2.83763e-05
2.81211e-05
2.77913e-05
2.73662e-05
2.68203e-05
2.61214e-05
2.52306e-05
2.41011e-05
2.26788e-05
2.09032e-05
1.87101e-05
1.60373e-05
1.28324e-05
9.0657e-06
4.74565e-06
-6.27263e-08
-5.22079e-06
-1.05061e-05
-1.56169e-05
-2.01989e-05
-2.38967e-05
-2.64245e-05
-2.76337e-05
-2.75511e-05
-2.63673e-05
-2.43782e-05
-2.19074e-05
-1.92421e-05
-1.65997e-05
-1.41238e-05
-1.18953e-05
-9.94826e-06
-8.28511e-06
-6.88818e-06
-5.72928e-06
-4.77638e-06
-3.99778e-06
-3.36412e-06
-2.84904e-06
-2.42951e-06
-2.08609e-06
-1.80318e-06
-1.5688e-06
-1.37379e-06
-1.21082e-06
-1.0736e-06
-9.56599e-07
-8.55213e-07
-7.66069e-07
-6.87064e-07
-6.17067e-07
-5.55401e-07
-5.01338e-07
-4.53843e-07
-4.116e-07
-3.73264e-07
-3.37753e-07
-3.04433e-07
-2.73132e-07
-2.43996e-07
-2.17265e-07
-1.93064e-07
-1.71289e-07
-1.5158e-07
-1.33404e-07
-1.16164e-07
-9.93094e-08
-8.24147e-08
-6.52118e-08
-4.76376e-08
-2.96887e-08
-1.15936e-08
2.902e-05
2.90088e-05
2.89794e-05
2.8931e-05
2.88614e-05
2.8766e-05
2.86387e-05
2.84718e-05
2.82552e-05
2.79763e-05
2.76188e-05
2.71622e-05
2.65809e-05
2.58436e-05
2.49124e-05
2.37426e-05
2.22829e-05
2.0477e-05
1.82663e-05
1.55952e-05
1.24193e-05
8.7168e-06
4.50298e-06
-1.53666e-07
-5.11691e-06
-1.01751e-05
-1.50471e-05
-1.94077e-05
-2.29346e-05
-2.53704e-05
-2.65812e-05
-2.65892e-05
-2.55625e-05
-2.37651e-05
-2.14901e-05
-1.90019e-05
-1.65061e-05
-1.41424e-05
-1.19933e-05
-1.00975e-05
-8.46292e-06
-7.07745e-06
-5.91791e-06
-4.95634e-06
-4.16418e-06
-3.51438e-06
-2.98228e-06
-2.54605e-06
-2.187e-06
-1.88991e-06
-1.64289e-06
-1.43669e-06
-1.26391e-06
-1.1182e-06
-9.94003e-07
-8.86664e-07
-7.92666e-07
-7.09691e-07
-6.36376e-07
-5.71853e-07
-5.1529e-07
-4.65627e-07
-4.21574e-07
-3.81808e-07
-3.45233e-07
-3.11152e-07
-2.79294e-07
-2.49697e-07
-2.22511e-07
-1.97813e-07
-1.75485e-07
-1.55186e-07
-1.36419e-07
-1.18618e-07
-1.01255e-07
-8.39076e-08
-6.63023e-08
-4.83648e-08
-3.00815e-08
-1.16713e-08
2.89763e-05
2.89634e-05
2.893e-05
2.88752e-05
2.87968e-05
2.86899e-05
2.85482e-05
2.83636e-05
2.81257e-05
2.78217e-05
2.7435e-05
2.69452e-05
2.63269e-05
2.55496e-05
2.45765e-05
2.33652e-05
2.18675e-05
2.00316e-05
1.78046e-05
1.51378e-05
1.19948e-05
8.36169e-06
4.26017e-06
-2.38358e-07
-5.00085e-06
-9.82725e-06
-1.44574e-05
-1.85953e-05
-2.1951e-05
-2.42944e-05
-2.55058e-05
-2.56028e-05
-2.4732e-05
-2.31268e-05
-2.10498e-05
-1.87429e-05
-1.63987e-05
-1.41524e-05
-1.20876e-05
-1.02471e-05
-8.64414e-06
-7.27229e-06
-6.11343e-06
-5.14385e-06
-4.33826e-06
-3.67209e-06
-3.1225e-06
-2.66893e-06
-2.29356e-06
-1.9816e-06
-1.72126e-06
-1.50327e-06
-1.32014e-06
-1.16546e-06
-1.03364e-06
-9.19971e-07
-8.20792e-07
-7.33576e-07
-6.56726e-07
-5.89178e-07
-5.29982e-07
-4.78042e-07
-4.32082e-07
-3.90796e-07
-3.53075e-07
-3.18162e-07
-2.85689e-07
-2.55587e-07
-2.27918e-07
-2.02703e-07