/*--------------------------------*- C++ -*----------------------------------*\
| =========                 |                                                 |
| \\      /  F ield         | OpenFOAM: The Open Source CFD Toolbox           |
|  \\    /   O peration     | Version:  2512                                  |
|   \\  /    A nd           | Website:  www.openfoam.com                      |
|    \\/     M anipulation  |                                                 |
\*---------------------------------------------------------------------------*/
FoamFile
{
    version     2.0;
    format      ascii;
    arch        "LSB;label=32;scalar=64";
    class       volScalarField;
    location    "100";
    object      p;
}
// * * * * * * * * * * * * * * * * * * * * * * * * * * * * * * * * * * * * * //

dimensions      [0 2 -2 0 0 0 0];

internalField   nonuniform List<scalar> 
248793
(
7.4078e-05
7.39808e-05
7.37317e-05
7.33336e-05
7.27834e-05
7.20618e-05
7.11399e-05
6.99811e-05
6.85408e-05
6.67652e-05
6.45916e-05
6.19488e-05
5.8758e-05
5.49345e-05
5.03904e-05
4.50401e-05
3.88063e-05
3.16282e-05
2.34706e-05
1.43363e-05
4.27896e-06
-6.58372e-06
-1.80589e-05
-2.98731e-05
-4.16744e-05
-5.30457e-05
-6.35313e-05
-7.26743e-05
-8.00636e-05
-8.53836e-05
-8.84548e-05
-8.92574e-05
-8.79308e-05
-8.47496e-05
-8.00817e-05
-7.43383e-05
-6.79269e-05
-6.12147e-05
-5.45065e-05
-4.80365e-05
-4.19694e-05
-3.6408e-05
-3.14041e-05
-2.69703e-05
-2.30905e-05
-1.97301e-05
-1.68429e-05
-1.4378e-05
-1.22829e-05
-1.05074e-05
-9.00488e-06
-7.73334e-06
-6.65624e-06
-5.74242e-06
-4.96584e-06
-4.30513e-06
-3.74284e-06
-3.26485e-06
-2.85964e-06
-2.51778e-06
-2.23142e-06
-1.99388e-06
-1.79916e-06
-1.64163e-06
-1.51569e-06
-1.41556e-06
-1.33525e-06
-1.26864e-06
-1.20966e-06
-1.15266e-06
-1.09261e-06
-1.02543e-06
-9.48123e-07
-8.58855e-07
-7.56854e-07
-6.42395e-07
-5.16682e-07
-3.81962e-07
-2.41226e-07
-1.05447e-07
7.41052e-05
7.40088e-05
7.37621e-05
7.33678e-05
7.28226e-05
7.21074e-05
7.11935e-05
7.00444e-05
6.86156e-05
6.68533e-05
6.46949e-05
6.2069e-05
5.88963e-05
5.50915e-05
5.0566e-05
4.52325e-05
3.90119e-05
3.18408e-05
2.36814e-05
1.45334e-05
4.44777e-06
-6.46001e-06
-1.79981e-05
-2.98922e-05
-4.17868e-05
-5.32592e-05
-6.38446e-05
-7.30763e-05
-8.0533e-05
-8.58906e-05
-8.89651e-05
-8.97368e-05
-8.83504e-05
-8.50893e-05
-8.0332e-05
-7.44997e-05
-6.80073e-05
-6.12269e-05
-5.44655e-05
-4.79572e-05
-4.18651e-05
-3.62901e-05
-3.12815e-05
-2.68496e-05
-2.29763e-05
-1.96251e-05
-1.67487e-05
-1.4295e-05
-1.22111e-05
-1.04462e-05
-8.95331e-06
-7.69047e-06
-6.62103e-06
-5.71388e-06
-4.94306e-06
-4.28728e-06
-3.72919e-06
-3.25472e-06
-2.85238e-06
-2.5128e-06
-2.22816e-06
-1.99181e-06
-1.79781e-06
-1.64061e-06
-1.51468e-06
-1.41432e-06
-1.33362e-06
-1.26652e-06
-1.20705e-06
-1.14962e-06
-1.08925e-06
-1.02193e-06
-9.44694e-07
-8.55714e-07
-7.54223e-07
-6.40464e-07
-5.15578e-07
-3.81681e-07
-2.41571e-07
-1.0558e-07
7.41586e-05
7.40639e-05
7.38219e-05
7.34349e-05
7.28996e-05
7.21972e-05
7.12991e-05
7.01693e-05
6.87633e-05
6.70277e-05
6.48994e-05
6.23069e-05
5.91701e-05
5.54026e-05
5.09138e-05
4.56137e-05
3.94194e-05
3.22627e-05
2.41002e-05
1.49257e-05
4.78461e-06
-6.21201e-06
-1.78745e-05
-2.99269e-05
-4.20074e-05
-5.3681e-05
-6.44662e-05
-7.38754e-05
-8.14671e-05
-8.69002e-05
-8.99813e-05
-9.06912e-05
-8.91851e-05
-8.57645e-05
-8.08288e-05
-7.48191e-05
-6.81657e-05
-6.12501e-05
-5.43833e-05
-4.77992e-05
-4.16581e-05
-3.60563e-05
-3.10387e-05
-2.66106e-05
-2.27501e-05
-1.94172e-05
-1.65621e-05
-1.41306e-05
-1.20686e-05
-1.03244e-05
-8.85057e-06
-7.60478e-06
-6.55039e-06
-5.65633e-06
-4.89683e-06
-4.25078e-06
-3.701e-06
-3.23354e-06
-2.83701e-06
-2.50208e-06
-2.22101e-06
-1.98722e-06
-1.7949e-06
-1.63861e-06
-1.51296e-06
-1.4124e-06
-1.33114e-06
-1.26328e-06
-1.20298e-06
-1.14476e-06
-1.08378e-06
-1.0161e-06
-9.38838e-07
-8.50197e-07
-7.49416e-07
-6.367e-07
-5.13092e-07
-3.80526e-07
-2.41478e-07
-1.0568e-07
7.42368e-05
7.41449e-05
7.39096e-05
7.35334e-05
7.30127e-05
7.23292e-05
7.14546e-05
7.03533e-05
6.89812e-05
6.72847e-05
6.52011e-05
6.2658e-05
5.95745e-05
5.58623e-05
5.14281e-05
4.61779e-05
4.00231e-05
3.28884e-05
2.47224e-05
1.551e-05
5.28809e-06
-5.83915e-06
-1.76855e-05
-2.9973e-05
-4.23304e-05
-5.43049e-05
-6.53892e-05
-7.50651e-05
-8.28597e-05
-8.84062e-05
-9.14969e-05
-9.21133e-05
-9.04268e-05
-8.67662e-05
-8.1563e-05
-7.52882e-05
-6.83951e-05
-6.1279e-05
-5.42567e-05
-4.75613e-05
-4.13485e-05
-3.57083e-05
-3.06781e-05
-2.62564e-05
-2.24153e-05
-1.91098e-05
-1.62862e-05
-1.38877e-05
-1.18581e-05
-1.01445e-05
-8.69865e-06
-7.47799e-06
-6.44573e-06
-5.57097e-06
-4.82816e-06
-4.19651e-06
-3.65906e-06
-3.20205e-06
-2.81421e-06
-2.4863e-06
-2.21066e-06
-1.98084e-06
-1.79119e-06
-1.63645e-06
-1.51142e-06
-1.41075e-06
-1.32886e-06
-1.26002e-06
-1.19857e-06
-1.13923e-06
-1.07732e-06
-1.00904e-06
-9.31599e-07
-8.43279e-07
-7.43324e-07
-6.31898e-07
-5.0993e-07
-3.79123e-07
-2.41545e-07
-1.06253e-07
7.43381e-05
7.42497e-05
7.40232e-05
7.36609e-05
7.31593e-05
7.25004e-05
7.16563e-05
7.05921e-05
6.9264e-05
6.76187e-05
6.55933e-05
6.31149e-05
6.01012e-05
5.64615e-05
5.20992e-05
4.69148e-05
4.08128e-05
3.37086e-05
2.554e-05
1.62803e-05
5.95489e-06
-5.34162e-06
-1.7428e-05
-3.00241e-05
-4.27466e-05
-5.51196e-05
-6.66015e-05
-7.66327e-05
-8.46981e-05
-9.03959e-05
-9.34986e-05
-9.39893e-05
-9.20609e-05
-8.80797e-05
-8.25208e-05
-7.58951e-05
-6.86862e-05
-6.13075e-05
-5.40825e-05
-4.72431e-05
-4.09387e-05
-3.52499e-05
-3.02048e-05
-2.57928e-05
-2.1978e-05
-1.87089e-05
-1.59269e-05
-1.35716e-05
-1.15843e-05
-9.91061e-06
-8.5013e-06
-7.31332e-06
-6.30983e-06
-5.46014e-06
-4.73904e-06
-4.1261e-06
-3.6047e-06
-3.1613e-06
-2.78477e-06
-2.46599e-06
-2.19741e-06
-1.97277e-06
-1.7866e-06
-1.63389e-06
-1.5097e-06
-1.40892e-06
-1.32621e-06
-1.25609e-06
-1.19312e-06
-1.13225e-06
-1.069e-06
-9.99773e-07
-9.21909e-07
-8.33764e-07
-7.3461e-07
-6.24565e-07
-5.04429e-07
-3.7566e-07
-2.39911e-07
-1.057e-07
7.44599e-05
7.43756e-05
7.41598e-05
7.38143e-05
7.33358e-05
7.27065e-05
7.18994e-05
7.08801e-05
6.96053e-05
6.80221e-05
6.60674e-05
6.36677e-05
6.07391e-05
5.71884e-05
5.29144e-05
4.78117e-05
4.17758e-05
3.47113e-05
2.65427e-05
1.72288e-05
6.78041e-06
-4.72e-06
-1.70982e-05
-3.0072e-05
-4.32442e-05
-5.61101e-05
-6.80862e-05
-7.85607e-05
-8.69645e-05
-9.28512e-05
-9.59682e-05
-9.63e-05
-9.40679e-05
-8.96859e-05
-8.36844e-05
-7.66245e-05
-6.90274e-05
-6.13279e-05
-5.38573e-05
-4.68449e-05
-4.04314e-05
-3.46864e-05
-2.96256e-05
-2.52274e-05
-2.1446e-05
-1.82222e-05
-1.54914e-05
-1.3189e-05
-1.12534e-05
-9.62826e-06
-8.26328e-06
-7.1149e-06
-6.14621e-06
-5.32679e-06
-4.63187e-06
-4.04151e-06
-3.53946e-06
-3.11247e-06
-2.74956e-06
-2.44176e-06
-2.18168e-06
-1.96326e-06
-1.78132e-06
-1.63114e-06
-1.50806e-06
-1.40729e-06
-1.32377e-06
-1.25227e-06
-1.18764e-06
-1.12507e-06
-1.06034e-06
-9.90062e-07
-9.11726e-07
-8.23786e-07
-7.25535e-07
-6.17043e-07
-4.98965e-07
-3.72499e-07
-2.38856e-07
-1.05916e-07
7.45991e-05
7.45196e-05
7.4316e-05
7.39898e-05
7.35377e-05
7.29425e-05
7.2178e-05
7.12104e-05
6.99971e-05
6.84856e-05
6.66127e-05
6.43043e-05
6.14749e-05
5.80281e-05
5.38579e-05
4.88518e-05
4.28954e-05
3.58805e-05
2.77162e-05
1.8344e-05
7.75723e-06
-3.97676e-06
-1.66929e-05
-3.01078e-05
-4.38087e-05
-5.72579e-05
-6.98215e-05
-8.0825e-05
-8.96338e-05
-9.57465e-05
-9.88795e-05
-9.9019e-05
-9.64214e-05
-9.15594e-05
-8.50308e-05
-7.74576e-05
-6.94047e-05
-6.13318e-05
-5.35777e-05
-4.63677e-05
-3.98316e-05
-3.40251e-05
-2.89496e-05
-2.457e-05
-2.08294e-05
-1.76596e-05
-1.49891e-05
-1.27486e-05
-1.08731e-05
-9.30419e-06
-7.99045e-06
-6.88767e-06
-5.95895e-06
-5.17421e-06
-4.50923e-06
-3.94463e-06
-3.46463e-06
-3.05627e-06
-2.70879e-06
-2.41336e-06
-2.16282e-06
-1.95135e-06
-1.7741e-06
-1.62671e-06
-1.50487e-06
-1.40413e-06
-1.31973e-06
-1.24675e-06
-1.18032e-06
-1.11591e-06
-1.04957e-06
-9.78128e-07
-8.99253e-07
-8.11492e-07
-7.14158e-07
-6.07259e-07
-4.91306e-07
-3.67239e-07
-2.35879e-07
-1.04655e-07
7.47522e-05
7.4678e-05
7.44879e-05
7.41831e-05
7.37602e-05
7.32028e-05
7.24855e-05
7.15752e-05
7.04302e-05
6.89985e-05
6.72169e-05
6.50107e-05
6.22925e-05
5.89628e-05
5.49105e-05
5.00149e-05
4.4151e-05
3.71961e-05
2.90421e-05
1.96106e-05
8.87446e-06
-3.11697e-06
-1.62103e-05
-3.01224e-05
-4.44238e-05
-5.85401e-05
-7.17795e-05
-8.33944e-05
-9.26729e-05
-9.90476e-05
-0.000102198
-0.000102112
-9.90876e-05
-9.36689e-05
-8.65331e-05
-7.8373e-05
-6.98036e-05
-6.13114e-05
-5.32421e-05
-4.5815e-05
-3.91466e-05
-3.32761e-05
-2.81882e-05
-2.3833e-05
-2.01407e-05
-1.70329e-05
-1.4431e-05
-1.22602e-05
-1.04521e-05
-8.94614e-06
-7.68944e-06
-6.63729e-06
-5.75282e-06
-5.00637e-06
-4.3744e-06
-3.83819e-06
-3.38248e-06
-2.99465e-06
-2.66414e-06
-2.38234e-06
-2.14228e-06
-1.93849e-06
-1.76648e-06
-1.6223e-06
-1.50204e-06
-1.40161e-06
-1.31657e-06
-1.2423e-06
-1.17424e-06
-1.10815e-06
-1.04034e-06
-9.67875e-07
-8.88588e-07
-8.01122e-07
-7.04803e-07
-5.9957e-07
-4.8578e-07
-3.64114e-07
-2.34978e-07
-1.05173e-07
7.49153e-05
7.48469e-05
7.46711e-05
7.43893e-05
7.39978e-05
7.34809e-05
7.28142e-05
7.19657e-05
7.08943e-05
6.95487e-05
6.78659e-05
6.57705e-05
6.31736e-05
5.99722e-05
5.60497e-05
5.12772e-05
4.55178e-05
3.86337e-05
3.04973e-05
2.10084e-05
1.01168e-05
-2.14939e-06
-1.56511e-05
-3.01073e-05
-4.50718e-05
-5.993e-05
-7.39261e-05
-8.62294e-05
-9.60383e-05
-0.000102709
-0.000105877
-0.000105533
-0.000102024
-9.59766e-05
-8.81596e-05
-7.93469e-05
-7.02086e-05
-6.12592e-05
-5.28502e-05
-4.51923e-05
-3.8386e-05
-3.24517e-05
-2.73556e-05
-2.30309e-05
-1.93939e-05
-1.63556e-05
-1.38293e-05
-1.17349e-05
-1.00002e-05
-8.56239e-06
-7.36725e-06
-6.36951e-06
-5.53237e-06
-4.82676e-06
-4.22992e-06
-3.72386e-06
-3.29391e-06
-2.92778e-06
-2.61518e-06
-2.34767e-06
-2.11856e-06
-1.92275e-06
-1.75618e-06
-1.61535e-06
-1.49679e-06
-1.39676e-06
-1.31116e-06
-1.23568e-06
-1.16605e-06
-1.09832e-06
-1.02908e-06
-9.55602e-07
-8.75906e-07
-7.88718e-07
-6.93369e-07
-5.89723e-07
-4.77982e-07
-3.58588e-07
-2.31629e-07
-1.03578e-07
7.50843e-05
7.50218e-05
7.48612e-05
7.46032e-05
7.42444e-05
7.37699e-05
7.31561e-05
7.23722e-05
7.1378e-05
7.01229e-05
6.85442e-05
6.6566e-05
6.40977e-05
6.10332e-05
5.725e-05
5.2611e-05
4.69669e-05
4.01637e-05
3.20535e-05
2.25121e-05
1.14637e-05
-1.08736e-06
-1.50194e-05
-3.00556e-05
-4.57338e-05
-6.13973e-05
-7.62206e-05
-8.92806e-05
-9.96752e-05
-0.000106673
-0.000109859
-0.000109227
-0.00010518
-9.84374e-05
-8.98746e-05
-8.03537e-05
-7.06047e-05
-6.11699e-05
-5.24047e-05
-4.45085e-05
-3.75631e-05
-3.15678e-05
-2.64686e-05
-2.21808e-05
-1.86057e-05
-1.56432e-05
-1.31983e-05
-1.11853e-05
-9.52863e-06
-8.16282e-06
-7.03246e-06
-6.09176e-06
-5.3041e-06
-4.6411e-06
-4.08086e-06
-3.60624e-06
-3.20314e-06
-2.85967e-06
-2.56573e-06
-2.31311e-06
-2.09543e-06
-1.90799e-06
-1.74721e-06
-1.61008e-06
-1.49356e-06
-1.39428e-06
-1.30847e-06
-1.2321e-06
-1.16119e-06
-1.09206e-06
-1.02156e-06
-9.47227e-07
-8.67214e-07
-7.80343e-07
-6.85946e-07
-5.83807e-07
-4.73973e-07
-3.5665e-07
-2.31567e-07
-1.04643e-07
7.52549e-05
7.51985e-05
7.50531e-05
7.48194e-05
7.44939e-05
7.40625e-05
7.35027e-05
7.27847e-05
7.18695e-05
7.0707e-05
6.92353e-05
6.73778e-05
6.50427e-05
6.21204e-05
5.84833e-05
5.39855e-05
4.84654e-05
4.17524e-05
3.36771e-05
2.40904e-05
1.28888e-05
5.02246e-08
-1.43238e-05
-2.99632e-05
-4.63912e-05
-6.29084e-05
-7.86153e-05
-9.24887e-05
-0.000103516
-0.000110867
-0.000114071
-0.000113124
-0.000108491
-0.000101
-9.16386e-05
-8.13675e-05
-7.09786e-05
-6.10412e-05
-5.1912e-05
-4.37762e-05
-3.66946e-05
-3.06435e-05
-2.55473e-05
-2.13022e-05
-1.77946e-05
-1.49126e-05
-1.2553e-05
-1.06247e-05
-9.04849e-06
-7.7567e-06
-6.69259e-06
-5.80993e-06
-5.0724e-06
-4.4524e-06
-3.92905e-06
-3.48607e-06
-3.10997e-06
-2.78921e-06
-2.51389e-06
-2.27603e-06
-2.06959e-06
-1.89033e-06
-1.73521e-06
-1.60172e-06
-1.48725e-06
-1.3888e-06
-1.30287e-06
-1.22572e-06
-1.1536e-06
-1.08313e-06
-1.0114e-06
-9.36173e-07
-8.55787e-07
-7.69144e-07
-6.75577e-07
-5.74795e-07
-4.66694e-07
-3.51274e-07
-2.28027e-07
-1.02716e-07
7.54227e-05
7.53722e-05
7.52419e-05
7.50324e-05
7.47399e-05
7.43512e-05
7.38451e-05
7.31928e-05
7.23562e-05
7.12864e-05
6.99217e-05
6.81856e-05
6.59849e-05
6.3207e-05
5.97191e-05
5.53669e-05
4.99767e-05
4.33611e-05
3.53294e-05
2.57062e-05
1.43593e-05
1.23821e-06
-1.35783e-05
-2.98296e-05
-4.70266e-05
-6.44273e-05
-8.10559e-05
-9.57835e-05
-0.000107478
-0.000115204
-0.000118425
-0.000117141
-0.000111888
-0.000103606
-9.34099e-05
-8.23627e-05
-7.13193e-05
-6.08744e-05
-5.13827e-05
-4.30126e-05
-3.58014e-05
-2.97014e-05
-2.46145e-05
-2.04175e-05
-1.69813e-05
-1.41826e-05
-1.19104e-05
-1.00682e-05
-8.57322e-06
-7.35586e-06
-6.35809e-06
-5.53332e-06
-4.84563e-06
-4.26833e-06
-3.7816e-06
-3.37008e-06
-3.02087e-06
-2.72271e-06
-2.46589e-06
-2.24266e-06
-2.04733e-06
-1.8762e-06
-1.72676e-06
-1.59704e-06
-1.48486e-06
-1.38755e-06
-1.30185e-06
-1.22422e-06
-1.15117e-06
-1.07953e-06
-1.00668e-06
-9.30605e-07
-8.49807e-07
-7.63291e-07
-6.70403e-07
-5.70779e-07
-4.64175e-07
-3.50383e-07
-2.28597e-07
-1.04128e-07
7.55832e-05
7.55385e-05
7.54229e-05
7.52366e-05
7.4976e-05
7.46288e-05
7.41746e-05
7.35859e-05
7.28257e-05
7.18461e-05
7.05859e-05
6.89687e-05
6.69e-05
6.42648e-05
6.09252e-05
5.67191e-05
5.14613e-05
4.49478e-05
3.69667e-05
2.73168e-05
1.58363e-05
2.44494e-06
-1.28031e-05
-2.96593e-05
-4.76246e-05
-6.59165e-05
-8.34825e-05
-9.90849e-05
-0.000111466
-0.000119578
-0.000122817
-0.000121182
-0.000115286
-0.000106191
-9.51451e-05
-8.33152e-05
-7.16197e-05
-6.06756e-05
-5.08323e-05
-4.22388e-05
-3.49079e-05
-2.87671e-05
-2.36951e-05
-1.95498e-05
-1.61869e-05
-1.3472e-05
-1.12865e-05
-9.52898e-06
-8.1137e-06
-6.96888e-06
-6.03541e-06
-5.26643e-06
-4.62653e-06
-4.09005e-06
-3.63831e-06
-3.25685e-06
-2.93332e-06
-2.65669e-06
-2.41737e-06
-2.20782e-06
-2.02279e-06
-1.85908e-06
-1.71482e-06
-1.58857e-06
-1.47857e-06
-1.3824e-06
-1.29702e-06
-1.21905e-06
-1.14517e-06
-1.07244e-06
-9.98481e-07
-9.21501e-07
-8.40195e-07
-7.53675e-07
-6.6131e-07
-5.62676e-07
-4.57406e-07
-3.45117e-07
-2.24845e-07
-1.0186e-07
7.57324e-05
7.56931e-05
7.55912e-05
7.54267e-05
7.51962e-05
7.48878e-05
7.44825e-05
7.39538e-05
7.32657e-05
7.23714e-05
7.12104e-05
6.97062e-05
6.77635e-05
6.52652e-05
6.20688e-05
5.8005e-05
5.28776e-05
4.64673e-05
3.8542e-05
2.88748e-05
1.72751e-05
3.63259e-06
-1.20245e-05
-2.94617e-05
-4.81732e-05
-6.73386e-05
-8.58309e-05
-0.000102304
-0.000115373
-0.000123872
-0.000127127
-0.000125139
-0.000118597
-0.000108689
-9.68007e-05
-8.42038e-05
-7.1877e-05
-6.04555e-05
-5.02808e-05
-4.14805e-05
-3.40424e-05
-2.7869e-05
-2.28168e-05
-1.87251e-05
-1.5435e-05
-1.28019e-05
-1.07001e-05
-9.02399e-06
-7.68487e-06
-6.60912e-06
-5.73661e-06
-5.02028e-06
-4.42533e-06
-3.9272e-06
-3.50841e-06
-3.15536e-06
-2.85617e-06
-2.59994e-06
-2.37715e-06
-2.18045e-06
-2.005e-06
-1.8482e-06
-1.70878e-06
-1.58587e-06
-1.47807e-06
-1.38323e-06
-1.29842e-06
-1.22037e-06
-1.14589e-06
-1.07223e-06
-9.97234e-07
-9.19331e-07
-8.37411e-07
-7.50712e-07
-6.58643e-07
-5.60742e-07
-4.56528e-07
-3.45448e-07
-2.26281e-07
-1.03849e-07
7.58662e-05
7.58318e-05
7.57424e-05
7.55978e-05
7.53945e-05
7.51215e-05
7.47607e-05
7.42867e-05
7.36646e-05
7.28483e-05
7.17781e-05
7.03779e-05
6.85516e-05
6.61801e-05
6.31172e-05
5.9187e-05
5.41836e-05
4.78735e-05
4.00056e-05
3.03296e-05
1.86269e-05
4.75823e-06
-1.12743e-05
-2.92518e-05
-4.86642e-05
-6.86574e-05
-8.80348e-05
-0.000105345
-0.000119079
-0.000127955
-0.000131225
-0.000128892
-0.000121722
-0.00011103
-9.83348e-05
-8.50111e-05
-7.20926e-05
-6.02294e-05
-4.97519e-05
-4.07659e-05
-3.32346e-05
-2.70364e-05
-2.20068e-05
-1.79676e-05
-1.47468e-05
-1.21901e-05
-1.0166e-05
-8.56486e-06
-7.29562e-06
-6.28297e-06
-5.46582e-06
-4.797e-06
-4.24238e-06
-3.77857e-06
-3.38926e-06
-3.06172e-06
-2.7844e-06
-2.54646e-06
-2.33837e-06
-2.15293e-06
-1.98571e-06
-1.83469e-06
-1.69927e-06
-1.57909e-06
-1.47314e-06
-1.37944e-06
-1.29515e-06
-1.21705e-06
-1.14202e-06
-1.06746e-06
-9.91404e-07
-9.12501e-07
-8.29833e-07
-7.42777e-07
-6.50801e-07
-5.53419e-07
-4.50064e-07
-3.40059e-07
-2.22092e-07
-1.01052e-07
7.5981e-05
7.5951e-05
7.58724e-05
7.57451e-05
7.55656e-05
7.53236e-05
7.50018e-05
7.45757e-05
7.40113e-05
7.32636e-05
7.22735e-05
7.0965e-05
6.92417e-05
6.69829e-05
6.40392e-05
6.02291e-05
5.53381e-05
4.91205e-05
4.13082e-05
3.16296e-05
1.9841e-05
5.77578e-06
-1.05885e-05
-2.90489e-05
-4.90936e-05
-6.98399e-05
-9.00281e-05
-0.000108111
-0.000122462
-0.000131688
-0.000134972
-0.000132317
-0.000124562
-0.000113145
-9.97084e-05
-8.57237e-05
-7.2273e-05
-6.00166e-05
-4.92728e-05
-4.01262e-05
-3.25164e-05
-2.63003e-05
-2.12941e-05
-1.7304e-05
-1.4146e-05
-1.16579e-05
-9.70299e-06
-8.16842e-06
-6.96107e-06
-6.00414e-06
-5.23566e-06
-4.60842e-06
-4.08897e-06
-3.65509e-06
-3.29159e-06
-2.98651e-06
-2.72856e-06
-2.50685e-06
-2.31176e-06
-2.1362e-06
-1.9761e-06
-1.83004e-06
-1.69801e-06
-1.58019e-06
-1.47591e-06
-1.38334e-06
-1.29968e-06
-1.2217e-06
-1.14632e-06
-1.07104e-06
-9.94036e-07
-9.14179e-07
-8.30735e-07
-7.43224e-07
-6.51187e-07
-5.54136e-07
-4.51431e-07
-3.42264e-07
-2.25086e-07
-1.04236e-07
7.60738e-05
7.60473e-05
7.59778e-05
7.58648e-05
7.5705e-05
7.54886e-05
7.51991e-05
7.48127e-05
7.42964e-05
7.36058e-05
7.26823e-05
7.14505e-05
6.98136e-05
6.76494e-05
6.48062e-05
6.1098e-05
5.63029e-05
5.01651e-05
4.24024e-05
3.27249e-05
2.0867e-05
6.63872e-06
-1.00047e-05
-2.88754e-05
-4.94615e-05
-7.0857e-05
-9.17488e-05
-0.000110506
-0.000125397
-0.000134931
-0.000138228
-0.00013529
-0.00012702
-0.000114967
-0.000100887
-8.63325e-05
-7.24271e-05
-5.9838e-05
-4.88711e-05
-3.95912e-05
-3.19177e-05
-2.56885e-05
-2.07035e-05
-1.67554e-05
-1.36505e-05
-1.12198e-05
-9.32241e-06
-7.84307e-06
-6.68694e-06
-5.77595e-06
-5.0474e-06
-4.454e-06
-3.963e-06
-3.55323e-06
-3.21057e-06
-2.92368e-06
-2.68145e-06
-2.47289e-06
-2.2882e-06
-2.12034e-06
-1.96558e-06
-1.823e-06
-1.6932e-06
-1.57681e-06
-1.47348e-06
-1.3815e-06
-1.29808e-06
-1.21996e-06
-1.14404e-06
-1.06788e-06
-9.89804e-07
-9.08835e-07
-8.24422e-07
-7.36226e-07
-6.43869e-07
-5.46874e-07
-4.44556e-07
-3.36037e-07
-2.1977e-07
-1.00314e-07
7.61419e-05
7.61181e-05
7.60555e-05
7.59534e-05
7.58087e-05
7.56119e-05
7.53471e-05
7.49912e-05
7.45117e-05
7.38649e-05
7.29928e-05
7.182e-05
7.02497e-05
6.81588e-05
6.53936e-05
6.17645e-05
5.70445e-05
5.09695e-05
4.32462e-05
3.35703e-05
2.16592e-05
7.30355e-06
-9.55936e-06
-2.87543e-05
-4.97707e-05
-7.16848e-05
-9.31413e-05
-0.000112441
-0.000127771
-0.000137555
-0.000140863
-0.000137693
-0.000129006
-0.000116439
-0.000101842
-8.68323e-05
-7.25667e-05
-5.97156e-05
-4.85738e-05
-3.91901e-05
-3.14673e-05
-2.52282e-05
-2.02598e-05
-1.63443e-05
-1.32803e-05
-1.08935e-05
-9.04021e-06
-7.60317e-06
-6.48629e-06
-5.6105e-06
-4.91246e-06
-4.34483e-06
-3.87542e-06
-3.484e-06
-3.1573e-06
-2.88448e-06
-2.65456e-06
-2.45633e-06
-2.27982e-06
-2.11799e-06
-1.96732e-06
-1.82736e-06
-1.69917e-06
-1.58381e-06
-1.4812e-06
-1.38973e-06
-1.30658e-06
-1.22845e-06
-1.15219e-06
-1.07541e-06
-9.96508e-07
-9.14655e-07
-8.29449e-07
-7.40685e-07
-6.48059e-07
-5.51118e-07
-4.49139e-07
-3.41147e-07
-2.25341e-07
-1.05512e-07
7.61833e-05
7.61614e-05
7.61032e-05
7.60084e-05
7.58738e-05
7.569e-05
7.54416e-05
7.51059e-05
7.4651e-05
7.40334e-05
7.31955e-05
7.20622e-05
7.05364e-05
6.84947e-05
6.57816e-05
6.22057e-05
5.75358e-05
5.15025e-05
4.38049e-05
3.41286e-05
2.21791e-05
7.73347e-06
-9.2837e-06
-2.87065e-05
-5.00254e-05
-7.23049e-05
-9.41603e-05
-0.000113845
-0.000129485
-0.000139447
-0.000142762
-0.000139427
-0.000130443
-0.000117513
-0.000102549
-8.72202e-05
-7.27022e-05
-5.96677e-05
-4.84032e-05
-3.89458e-05
-3.11871e-05
-2.49392e-05
-1.99802e-05
-1.6085e-05
-1.30467e-05
-1.06879e-05
-8.86272e-06
-7.45275e-06
-6.36105e-06
-5.50781e-06
-4.82917e-06
-4.27775e-06
-3.82178e-06
-3.44168e-06
-3.12484e-06
-2.86077e-06
-2.63849e-06
-2.44662e-06
-2.275e-06
-2.11651e-06
-1.9678e-06
-1.82872e-06
-1.70072e-06
-1.58517e-06
-1.4822e-06
-1.39028e-06
-1.30658e-06
-1.22774e-06
-1.15058e-06
-1.07271e-06
-9.92577e-07
-9.09474e-07
-8.23119e-07
-7.33417e-07
-6.40137e-07
-5.42852e-07
-4.40828e-07
-3.33071e-07
-2.17893e-07
-9.95747e-08
7.61968e-05
7.61756e-05
7.61196e-05
7.60282e-05
7.58981e-05
7.57204e-05
7.54797e-05
7.51534e-05
7.47099e-05
7.4106e-05
7.32841e-05
7.21693e-05
7.06644e-05
6.86456e-05
6.59568e-05
6.24053e-05
5.7758e-05
5.17426e-05
4.40542e-05
3.43734e-05
2.23992e-05
7.90198e-06
-9.20056e-06
-2.87472e-05
-5.02291e-05
-7.27043e-05
-9.47727e-05
-0.000114663
-0.000130468
-0.000140524
-0.000143841
-0.000140418
-0.000131276
-0.000118151
-0.000102994
-8.74949e-05
-7.28422e-05
-5.97086e-05
-4.83761e-05
-3.88762e-05
-3.10943e-05
-2.48375e-05
-1.98791e-05
-1.59903e-05
-1.29616e-05
-1.06138e-05
-8.79993e-06
-7.40121e-06
-6.3202e-06
-5.47665e-06
-4.80638e-06
-4.26192e-06
-3.81171e-06
-3.43654e-06
-3.12412e-06
-2.86414e-06
-2.64559e-06
-2.45691e-06
-2.28774e-06
-2.13088e-06
-1.98302e-06
-1.84416e-06
-1.71598e-06
-1.60004e-06
-1.49662e-06
-1.40422e-06
-1.32003e-06
-1.24062e-06
-1.1628e-06
-1.08414e-06
-1.00315e-06
-9.19182e-07
-8.32045e-07
-7.41727e-07
-6.48055e-07
-5.50626e-07
-4.48692e-07
-3.41187e-07
-2.26139e-07
-1.06845e-07
7.61816e-05
7.61602e-05
7.61038e-05
7.60118e-05
7.58809e-05
7.5702e-05
7.54599e-05
7.5132e-05
7.46864e-05
7.40801e-05
7.32555e-05
7.21374e-05
7.06289e-05
6.86058e-05
6.59123e-05
6.23552e-05
5.77015e-05
5.16788e-05
4.39819e-05
3.42912e-05
2.23057e-05
7.79563e-06
-9.32135e-06
-2.88838e-05
-5.03826e-05
-7.2875e-05
-9.49596e-05
-0.000114863
-0.000130678
-0.000140739
-0.000144054
-0.000140624
-0.000131471
-0.000118335
-0.000103165
-8.76546e-05
-7.29899e-05
-5.98444e-05
-4.85001e-05
-3.89887e-05
-3.1196e-05
-2.49292e-05
-1.99615e-05
-1.60641e-05
-1.30274e-05
-1.06723e-05
-8.85185e-06
-7.44735e-06
-6.36133e-06
-5.51343e-06
-4.83933e-06
-4.29147e-06
-3.83824e-06
-3.46045e-06
-3.14581e-06
-2.88401e-06
-2.66394e-06
-2.47393e-06
-2.30346e-06
-2.14521e-06
-1.99581e-06
-1.85526e-06
-1.72526e-06
-1.60747e-06
-1.50219e-06
-1.408e-06
-1.32207e-06
-1.24097e-06
-1.16149e-06
-1.08119e-06
-9.98606e-07
-9.13121e-07
-8.24606e-07
-7.33104e-07
-6.38483e-07
-5.40363e-07
-4.38008e-07
-3.30381e-07
-2.15742e-07
-9.82428e-08
7.61378e-05
7.61154e-05
7.60561e-05
7.59594e-05
7.58221e-05
7.56349e-05
7.53824e-05
7.50417e-05
7.45807e-05
7.39559e-05
7.31097e-05
7.19668e-05
7.04301e-05
6.83757e-05
6.56482e-05
6.20557e-05
5.73668e-05
5.13114e-05
4.35883e-05
3.38827e-05
2.18995e-05
7.41557e-06
-9.6446e-06
-2.91145e-05
-5.04836e-05
-7.28139e-05
-9.47173e-05
-0.000114443
-0.000130111
-0.000140086
-0.000143396
-0.000140041
-0.000131027
-0.000118061
-0.000103061
-8.76969e-05
-7.31435e-05
-6.00735e-05
-4.87737e-05
-3.92824e-05
-3.14916e-05
-2.5214e-05
-2.02274e-05
-1.63068e-05
-1.32452e-05
-1.08651e-05
-9.02078e-06
-7.59419e-06
-6.48824e-06
-5.6228e-06
-4.93363e-06
-4.37305e-06
-3.90916e-06
-3.52241e-06
-3.20021e-06
-2.93201e-06
-2.70657e-06
-2.51212e-06
-2.33805e-06
-2.17689e-06
-2.02507e-06
-1.88242e-06
-1.75051e-06
-1.63089e-06
-1.52385e-06
-1.42797e-06
-1.34045e-06
-1.25788e-06
-1.17705e-06
-1.09553e-06
-1.01185e-06
-9.254e-07
-8.36066e-07
-7.43909e-07
-6.48819e-07
-5.50425e-07
-4.47987e-07
-3.40415e-07
-2.25674e-07
-1.06806e-07
7.60664e-05
7.60418e-05
7.59771e-05
7.58719e-05
7.57229e-05
7.55206e-05
7.52489e-05
7.48845e-05
7.4395e-05
7.37363e-05
7.28504e-05
7.16617e-05
7.00731e-05
6.79614e-05
6.51721e-05
6.15156e-05
5.67639e-05
5.06524e-05
4.2887e-05
3.31628e-05
2.11961e-05
6.77748e-06
-1.0156e-05
-2.94281e-05
-5.05262e-05
-7.25229e-05
-9.40573e-05
-0.000113423
-0.000128799
-0.000138604
-0.000141904
-0.000138702
-0.000129966
-0.000117343
-0.000102686
-8.76186e-05
-7.32948e-05
-6.03853e-05
-4.91856e-05
-3.97459e-05
-3.19702e-05
-2.56819e-05
-2.06679e-05
-1.67104e-05
-1.36074e-05
-1.11851e-05
-9.30001e-06
-7.83508e-06
-6.69417e-06
-5.79771e-06
-5.08174e-06
-4.49844e-06
-4.01541e-06
-3.6124e-06
-3.27618e-06
-2.9958e-06
-2.75984e-06
-2.55649e-06
-2.37506e-06
-2.20792e-06
-2.05121e-06
-1.90441e-06
-1.76878e-06
-1.64565e-06
-1.53523e-06
-1.43607e-06
-1.34545e-06
-1.26001e-06
-1.17657e-06
-1.09274e-06
-1.00701e-06
-9.18761e-07
-8.27863e-07
-7.3436e-07
-6.38133e-07
-5.38821e-07
-4.357e-07
-3.27743e-07
-2.13236e-07
-9.63443e-08
7.59687e-05
7.59411e-05
7.58688e-05
7.57514e-05
7.55857e-05
7.53615e-05
7.50624e-05
7.46643e-05
7.4134e-05
7.34268e-05
7.24842e-05
7.12302e-05
6.95678e-05
6.73746e-05
6.4498e-05
6.07516e-05
5.59126e-05
4.97243e-05
4.19035e-05
3.21591e-05
2.02249e-05
5.91005e-06
-1.08298e-05
-2.98056e-05
-5.05027e-05
-7.20098e-05
-9.30064e-05
-0.000111852
-0.000126805
-0.000136367
-0.000139655
-0.000136674
-0.000128339
-0.00011621
-0.000102051
-8.74168e-05
-7.34318e-05
-6.07627e-05
-4.97164e-05
-4.03598e-05
-3.26135e-05
-2.63165e-05
-2.12687e-05
-1.72627e-05
-1.41044e-05
-1.16249e-05
-9.68389e-06
-8.16631e-06
-6.97725e-06
-6.03808e-06
-5.28528e-06
-4.6709e-06
-4.16184e-06
-3.73689e-06
-3.38192e-06
-3.08537e-06
-2.83561e-06
-2.62075e-06
-2.43008e-06
-2.25574e-06
-2.09347e-06
-1.94227e-06
-1.8029e-06
-1.6764e-06
-1.56275e-06
-1.46054e-06
-1.36708e-06
-1.27911e-06
-1.19355e-06
-1.10797e-06
-1.02088e-06
-9.31586e-07
-8.39895e-07
-7.45796e-07
-6.49135e-07
-5.49538e-07
-4.46278e-07
-3.38286e-07
-2.23566e-07
-1.05161e-07
7.5847e-05
7.58156e-05
7.57335e-05
7.56006e-05
7.54135e-05
7.51616e-05
7.48275e-05
7.43864e-05
7.38042e-05
7.30354e-05
7.20207e-05
7.06839e-05
6.89283e-05
6.66323e-05
6.36461e-05
5.97874e-05
5.48406e-05
4.85589e-05
4.06731e-05
3.09102e-05
1.90255e-05
4.85206e-06
-1.16324e-05
-3.02233e-05
-5.0405e-05
-7.12883e-05
-9.16046e-05
-0.000109795
-0.000124221
-0.000133481
-0.000136755
-0.00013405
-0.000126217
-0.000114708
-0.000101174
-8.70903e-05
-7.354e-05
-6.11835e-05
-5.03406e-05
-4.10976e-05
-3.33964e-05
-2.70946e-05
-2.20091e-05
-1.79457e-05
-1.47201e-05
-1.21703e-05
-1.016e-05
-8.57681e-06
-7.32746e-06
-6.33454e-06
-5.53516e-06
-4.88124e-06
-4.33889e-06
-3.88572e-06
-3.50649e-06
-3.1889e-06
-2.92101e-06
-2.69089e-06
-2.48775e-06
-2.30347e-06
-2.13332e-06
-1.97569e-06
-1.83077e-06
-1.69914e-06
-1.58061e-06
-1.47372e-06
-1.37587e-06
-1.28396e-06
-1.19496e-06
-1.10651e-06
-1.01706e-06
-9.25835e-07
-8.32552e-07
-7.3711e-07
-6.393e-07
-5.38725e-07
-4.34676e-07
-3.26156e-07
-2.11505e-07
-9.49014e-08
7.5704e-05
7.5668e-05
7.55743e-05
7.54229e-05
7.52104e-05
7.49255e-05
7.45499e-05
7.40577e-05
7.34139e-05
7.25721e-05
7.14723e-05
7.00378e-05
6.81722e-05
6.57558e-05
6.26416e-05
5.86528e-05
5.35822e-05
4.71952e-05
3.92392e-05
2.94625e-05
1.76457e-05
3.64882e-06
-1.25253e-05
-3.06555e-05
-5.02273e-05
-7.0379e-05
-8.99037e-05
-0.000107337
-0.000121158
-0.000130073
-0.000133333
-0.000130945
-0.000123686
-0.00011289
-0.000100081
-8.66413e-05
-7.36054e-05
-6.16241e-05
-5.10293e-05
-4.19293e-05
-3.42891e-05
-2.7989e-05
-2.28648e-05
-1.87381e-05
-1.54366e-05
-1.28064e-05
-1.07162e-05
-9.05701e-06
-7.73766e-06
-6.68221e-06
-5.82854e-06
-5.12851e-06
-4.54737e-06
-4.06143e-06
-3.65421e-06
-3.31255e-06
-3.02412e-06
-2.77688e-06
-2.5599e-06
-2.36478e-06
-2.18623e-06
-2.02194e-06
-1.87144e-06
-1.73482e-06
-1.61161e-06
-1.50032e-06
-1.39847e-06
-1.30308e-06
-1.21122e-06
-1.12057e-06
-1.02951e-06
-9.3718e-07
-8.43147e-07
-7.47197e-07
-6.49042e-07
-5.48246e-07
-4.44086e-07
-3.35543e-07
-2.20715e-07
-1.02768e-07
7.55431e-05
7.55019e-05
7.5395e-05
7.52227e-05
7.49814e-05
7.46591e-05
7.42364e-05
7.36865e-05
7.29731e-05
7.2049e-05
7.08532e-05
6.9309e-05
6.73205e-05
6.47698e-05
6.15136e-05
5.73816e-05
5.21763e-05
4.5677e-05
3.76499e-05
2.78671e-05
1.61367e-05
2.34834e-06
-1.3469e-05
-3.1078e-05
-4.99674e-05
-6.93087e-05
-8.79635e-05
-0.000104572
-0.000117735
-0.000126279
-0.000129524
-0.000127478
-0.000120841
-0.000110819
-9.88038e-05
-8.60764e-05
-7.36166e-05
-6.2061e-05
-5.17528e-05
-4.28223e-05
-3.52597e-05
-2.89692e-05
-2.3808e-05
-1.96153e-05
-1.62323e-05
-1.35143e-05
-1.13363e-05
-9.59295e-06
-8.19576e-06
-7.07046e-06
-6.15583e-06
-5.40372e-06
-4.77855e-06
-4.25529e-06
-3.81616e-06
-3.44704e-06
-3.1351e-06
-2.86811e-06
-2.63498e-06
-2.42695e-06
-2.23813e-06
-2.06548e-06
-1.90783e-06
-1.76473e-06
-1.63545e-06
-1.51844e-06
-1.41131e-06
-1.31123e-06
-1.21541e-06
-1.12153e-06
-1.02793e-06
-9.3361e-07
-8.38009e-07
-7.40778e-07
-6.41536e-07
-5.39808e-07
-4.34878e-07
-3.25795e-07
-2.10946e-07
-9.44214e-08
7.53681e-05
7.53211e-05
7.51999e-05
7.50046e-05
7.47318e-05
7.43687e-05
7.38948e-05
7.32819e-05
7.24929e-05
7.14794e-05
7.01797e-05
6.85169e-05
6.6396e-05
6.37012e-05
6.02938e-05
5.60105e-05
5.06646e-05
4.40508e-05
3.59557e-05
2.61765e-05
1.45507e-05
9.97942e-07
-1.44262e-05
-3.14699e-05
-4.96281e-05
-6.81093e-05
-8.5849e-05
-0.000101596
-0.000114078
-0.000122238
-0.000125468
-0.000123774
-0.00011778
-0.000108562
-9.73801e-05
-8.54077e-05
-7.3566e-05
-6.24739e-05
-5.24832e-05
-4.37453e-05
-3.62759e-05
-3.00043e-05
-2.48102e-05
-2.05519e-05
-1.70849e-05
-1.4275e-05
-1.20041e-05
-1.01713e-05
-8.69098e-06
-7.49082e-06
-6.5106e-06
-5.70229e-06
-5.02951e-06
-4.46599e-06
-3.99257e-06
-3.59414e-06
-3.25729e-06
-2.96947e-06
-2.71937e-06
-2.49783e-06
-2.29835e-06
-2.11714e-06
-1.95231e-06
-1.80286e-06
-1.66777e-06
-1.54539e-06
-1.43343e-06
-1.3292e-06
-1.22998e-06
-1.13349e-06
-1.038e-06
-9.42395e-07
-8.45936e-07
-7.48142e-07
-6.48531e-07
-5.46576e-07
-4.41548e-07
-3.32479e-07
-2.17591e-07
-1.00203e-07
7.51829e-05
7.51299e-05
7.49934e-05
7.47739e-05
7.44678e-05
7.40615e-05
7.35333e-05
7.28541e-05
7.19853e-05
7.08776e-05
6.94688e-05
6.76819e-05
6.54229e-05
6.25788e-05
5.90155e-05
5.45775e-05
4.909e-05
4.23638e-05
3.42067e-05
2.44422e-05
1.29372e-05
-3.58556e-07
-1.53644e-05
-3.18158e-05
-4.9217e-05
-6.68168e-05
-8.36269e-05
-9.85045e-05
-0.000110304
-0.00011808
-0.000121295
-0.000119952
-0.000114599
-0.00010619
-9.58511e-05
-8.46519e-05
-7.34514e-05
-6.28469e-05
-5.31956e-05
-4.46688e-05
-3.73066e-05
-3.10636e-05
-2.58428e-05
-2.15215e-05
-1.79709e-05
-1.50678e-05
-1.27017e-05
-1.07767e-05
-9.21016e-06
-7.93199e-06
-6.88308e-06
-6.01559e-06
-5.29251e-06
-4.68635e-06
-4.17665e-06
-3.74722e-06
-3.38397e-06
-3.07398e-06
-2.80564e-06
-2.56935e-06
-2.35803e-06
-2.16716e-06
-1.99414e-06
-1.83743e-06
-1.69568e-06