/*--------------------------------*- C++ -*----------------------------------*\
| =========                 |                                                 |
| \\      /  F ield         | OpenFOAM: The Open Source CFD Toolbox           |
|  \\    /   O peration     | Version:  2512                                  |
|   \\  /    A nd           | Website:  www.openfoam.com                      |
|    \\/     M anipulation  |                                                 |
\*---------------------------------------------------------------------------*/
FoamFile
{
    version     2.0;
    format      ascii;
    arch        "LSB;label=32;scalar=64";
    class       volScalarField;
    location    "139";
    object      nut;
}
// * * * * * * * * * * * * * * * * * * * * * * * * * * * * * * * * * * * * * //

dimensions      [0 2 -1 0 0 0 0];

internalField   nonuniform List<scalar> 
229904
(
0.000371001
0.00036746
0.000364267
0.000361365
0.000358709
0.000356263
0.000353997
0.00035189
0.000349921
0.000348074
0.000346337
0.000344697
0.000343144
0.000341672
0.000340271
0.000338936
0.000337662
0.000336442
0.000335274
0.000334152
0.000333075
0.000332038
0.000331038
0.000330074
0.000329143
0.000328243
0.000327371
0.000326527
0.000325709
0.000324915
0.000324144
0.000323395
0.000322666
0.000321957
0.000321266
0.000320593
0.000319937
0.000319297
0.000318672
0.000318062
0.000317466
0.000316883
0.000316313
0.000315755
0.00031521
0.000314675
0.000314152
0.000313639
0.000313136
0.000312643
0.000312159
0.000311684
0.000311218
0.000310761
0.000310311
0.00030987
0.000309436
0.000309009
0.00030859
0.000308177
0.000307771
0.000307372
0.000306979
0.000306592
0.000306211
0.000305836
0.000305466
0.000305102
0.000304743
0.000304389
0.00030404
0.000303696
0.000303357
0.000303022
0.000302692
0.000302367
0.000302045
0.000301728
0.000301415
0.000301114
0.000371001
0.00036746
0.000364267
0.000361365
0.000358709
0.000356263
0.000353997
0.00035189
0.000349921
0.000348074
0.000346337
0.000344697
0.000343144
0.000341672
0.000340271
0.000338936
0.000337662
0.000336442
0.000335274
0.000334152
0.000333075
0.000332038
0.000331038
0.000330074
0.000329143
0.000328243
0.000327371
0.000326527
0.000325709
0.000324915
0.000324144
0.000323394
0.000322666
0.000321956
0.000321266
0.000320593
0.000319937
0.000319297
0.000318672
0.000318062
0.000317465
0.000316883
0.000316313
0.000315755
0.000315209
0.000314675
0.000314151
0.000313638
0.000313136
0.000312642
0.000312159
0.000311684
0.000311218
0.00031076
0.000310311
0.000309869
0.000309435
0.000309009
0.000308589
0.000308177
0.000307771
0.000307372
0.000306979
0.000306592
0.000306211
0.000305835
0.000305466
0.000305101
0.000304742
0.000304389
0.00030404
0.000303696
0.000303357
0.000303022
0.000302692
0.000302367
0.000302045
0.000301728
0.000301415
0.000301114
0.000371001
0.00036746
0.000364267
0.000361365
0.000358709
0.000356263
0.000353997
0.00035189
0.000349921
0.000348074
0.000346337
0.000344697
0.000343144
0.000341672
0.000340271
0.000338936
0.000337662
0.000336442
0.000335274
0.000334152
0.000333075
0.000332038
0.000331038
0.000330074
0.000329143
0.000328242
0.000327371
0.000326527
0.000325709
0.000324915
0.000324144
0.000323394
0.000322666
0.000321956
0.000321266
0.000320593
0.000319936
0.000319296
0.000318671
0.000318061
0.000317465
0.000316882
0.000316312
0.000315755
0.000315209
0.000314675
0.000314151
0.000313638
0.000313135
0.000312642
0.000312158
0.000311684
0.000311218
0.00031076
0.000310311
0.000309869
0.000309435
0.000309008
0.000308589
0.000308176
0.000307771
0.000307371
0.000306978
0.000306591
0.00030621
0.000305835
0.000305465
0.000305101
0.000304742
0.000304388
0.00030404
0.000303696
0.000303356
0.000303022
0.000302692
0.000302366
0.000302045
0.000301728
0.000301415
0.000301114
0.000371001
0.00036746
0.000364267
0.000361365
0.000358709
0.000356263
0.000353997
0.00035189
0.000349921
0.000348074
0.000346337
0.000344697
0.000343144
0.000341672
0.000340271
0.000338936
0.000337662
0.000336442
0.000335274
0.000334152
0.000333075
0.000332037
0.000331038
0.000330074
0.000329143
0.000328242
0.000327371
0.000326527
0.000325709
0.000324915
0.000324143
0.000323394
0.000322665
0.000321956
0.000321265
0.000320592
0.000319936
0.000319296
0.000318671
0.000318061
0.000317465
0.000316882
0.000316312
0.000315754
0.000315209
0.000314674
0.000314151
0.000313638
0.000313135
0.000312642
0.000312158
0.000311683
0.000311217
0.00031076
0.00031031
0.000309869
0.000309435
0.000309008
0.000308589
0.000308176
0.00030777
0.000307371
0.000306978
0.000306591
0.00030621
0.000305835
0.000305465
0.000305101
0.000304742
0.000304388
0.000304039
0.000303695
0.000303356
0.000303022
0.000302691
0.000302366
0.000302044
0.000301727
0.000301414
0.000301113
0.000371001
0.00036746
0.000364267
0.000361365
0.000358709
0.000356263
0.000353997
0.00035189
0.000349921
0.000348074
0.000346337
0.000344697
0.000343144
0.000341672
0.000340271
0.000338936
0.000337661
0.000336442
0.000335274
0.000334152
0.000333075
0.000332037
0.000331038
0.000330074
0.000329143
0.000328242
0.000327371
0.000326527
0.000325708
0.000324914
0.000324143
0.000323394
0.000322665
0.000321956
0.000321265
0.000320592
0.000319936
0.000319296
0.000318671
0.000318061
0.000317464
0.000316882
0.000316312
0.000315754
0.000315208
0.000314674
0.00031415
0.000313637
0.000313134
0.000312641
0.000312157
0.000311683
0.000311217
0.000310759
0.00031031
0.000309868
0.000309434
0.000309008
0.000308588
0.000308176
0.00030777
0.00030737
0.000306977
0.00030659
0.000306209
0.000305834
0.000305464
0.0003051
0.000304741
0.000304387
0.000304039
0.000303695
0.000303356
0.000303021
0.000302691
0.000302365
0.000302044
0.000301727
0.000301414
0.000301113
0.000371001
0.00036746
0.000364267
0.000361365
0.000358709
0.000356263
0.000353997
0.00035189
0.000349921
0.000348074
0.000346336
0.000344697
0.000343144
0.000341672
0.000340271
0.000338936
0.000337661
0.000336442
0.000335274
0.000334152
0.000333075
0.000332037
0.000331038
0.000330074
0.000329142
0.000328242
0.000327371
0.000326527
0.000325708
0.000324914
0.000324143
0.000323394
0.000322665
0.000321956
0.000321265
0.000320592
0.000319935
0.000319295
0.00031867
0.00031806
0.000317464
0.000316881
0.000316311
0.000315754
0.000315208
0.000314673
0.00031415
0.000313637
0.000313134
0.000312641
0.000312157
0.000311682
0.000311216
0.000310759
0.000310309
0.000309868
0.000309434
0.000309007
0.000308588
0.000308175
0.000307769
0.00030737
0.000306977
0.00030659
0.000306209
0.000305834
0.000305464
0.0003051
0.000304741
0.000304387
0.000304038
0.000303694
0.000303355
0.000303021
0.000302691
0.000302365
0.000302043
0.000301726
0.000301413
0.000301112
0.000371001
0.00036746
0.000364267
0.000361365
0.000358709
0.000356263
0.000353997
0.00035189
0.000349921
0.000348074
0.000346336
0.000344697
0.000343144
0.000341672
0.000340271
0.000338936
0.000337661
0.000336442
0.000335274
0.000334152
0.000333074
0.000332037
0.000331038
0.000330074
0.000329142
0.000328242
0.000327371
0.000326526
0.000325708
0.000324914
0.000324143
0.000323393
0.000322665
0.000321955
0.000321264
0.000320591
0.000319935
0.000319295
0.00031867
0.00031806
0.000317464
0.000316881
0.000316311
0.000315753
0.000315207
0.000314673
0.000314149
0.000313636
0.000313134
0.00031264
0.000312157
0.000311682
0.000311216
0.000310758
0.000310309
0.000309867
0.000309433
0.000309007
0.000308587
0.000308175
0.000307769
0.000307369
0.000306976
0.000306589
0.000306208
0.000305833
0.000305463
0.000305099
0.00030474
0.000304387
0.000304038
0.000303694
0.000303355
0.00030302
0.00030269
0.000302364
0.000302043
0.000301726
0.000301413
0.000301112
0.000371001
0.00036746
0.000364267
0.000361365
0.000358709
0.000356263
0.000353997
0.00035189
0.000349921
0.000348074
0.000346336
0.000344696
0.000343144
0.000341672
0.000340271
0.000338936
0.000337661
0.000336442
0.000335274
0.000334152
0.000333074
0.000332037
0.000331038
0.000330073
0.000329142
0.000328242
0.00032737
0.000326526
0.000325708
0.000324914
0.000324143
0.000323393
0.000322664
0.000321955
0.000321264
0.000320591
0.000319935
0.000319295
0.00031867
0.000318059
0.000317463
0.00031688
0.00031631
0.000315753
0.000315207
0.000314673
0.000314149
0.000313636
0.000313133
0.00031264
0.000312156
0.000311681
0.000311215
0.000310758
0.000310308
0.000309867
0.000309433
0.000309006
0.000308587
0.000308174
0.000307768
0.000307369
0.000306976
0.000306589
0.000306208
0.000305833
0.000305463
0.000305099
0.00030474
0.000304386
0.000304037
0.000303693
0.000303354
0.00030302
0.000302689
0.000302364
0.000302042
0.000301725
0.000301412
0.000301111
0.000371001
0.00036746
0.000364267
0.000361365
0.000358709
0.000356263
0.000353997
0.00035189
0.000349921
0.000348074
0.000346336
0.000344696
0.000343144
0.000341672
0.000340271
0.000338936
0.000337661
0.000336442
0.000335273
0.000334152
0.000333074
0.000332037
0.000331038
0.000330073
0.000329142
0.000328242
0.00032737
0.000326526
0.000325708
0.000324914
0.000324142
0.000323393
0.000322664
0.000321955
0.000321264
0.000320591
0.000319934
0.000319294
0.000318669
0.000318059
0.000317463
0.00031688
0.00031631
0.000315752
0.000315206
0.000314672
0.000314148
0.000313635
0.000313133
0.000312639
0.000312156
0.000311681
0.000311215
0.000310757
0.000310308
0.000309866
0.000309432
0.000309006
0.000308586
0.000308174
0.000307768
0.000307368
0.000306975
0.000306588
0.000306207
0.000305832
0.000305462
0.000305098
0.000304739
0.000304385
0.000304037
0.000303693
0.000303354
0.000303019
0.000302689
0.000302363
0.000302042
0.000301725
0.000301412
0.000301111
0.000371001
0.00036746
0.000364267
0.000361365
0.000358709
0.000356263
0.000353997
0.00035189
0.000349921
0.000348074
0.000346336
0.000344696
0.000343144
0.000341672
0.000340271
0.000338936
0.000337661
0.000336442
0.000335273
0.000334152
0.000333074
0.000332037
0.000331037
0.000330073
0.000329142
0.000328241
0.00032737
0.000326526
0.000325707
0.000324913
0.000324142
0.000323393
0.000322664
0.000321954
0.000321263
0.00032059
0.000319934
0.000319294
0.000318669
0.000318059
0.000317462
0.000316879
0.000316309
0.000315752
0.000315206
0.000314671
0.000314148
0.000313635
0.000313132
0.000312639
0.000312155
0.00031168
0.000311214
0.000310757
0.000310307
0.000309866
0.000309432
0.000309005
0.000308586
0.000308173
0.000307767
0.000307368
0.000306975
0.000306588
0.000306207
0.000305831
0.000305462
0.000305098
0.000304739
0.000304385
0.000304036
0.000303692
0.000303353
0.000303018
0.000302688
0.000302363
0.000302041
0.000301724
0.000301411
0.00030111
0.000371001
0.00036746
0.000364267
0.000361365
0.000358709
0.000356263
0.000353997
0.00035189
0.000349921
0.000348074
0.000346336
0.000344696
0.000343144
0.000341672
0.000340271
0.000338936
0.000337661
0.000336442
0.000335273
0.000334152
0.000333074
0.000332037
0.000331037
0.000330073
0.000329142
0.000328241
0.00032737
0.000326526
0.000325707
0.000324913
0.000324142
0.000323392
0.000322663
0.000321954
0.000321263
0.00032059
0.000319934
0.000319293
0.000318668
0.000318058
0.000317462
0.000316879
0.000316309
0.000315751
0.000315205
0.000314671
0.000314147
0.000313634
0.000313131
0.000312638
0.000312154
0.00031168
0.000311214
0.000310756
0.000310307
0.000309865
0.000309431
0.000309004
0.000308585
0.000308172
0.000307767
0.000307367
0.000306974
0.000306587
0.000306206
0.000305831
0.000305461
0.000305097
0.000304738
0.000304384
0.000304035
0.000303692
0.000303352
0.000303018
0.000302688
0.000302362
0.000302041
0.000301723
0.00030141
0.00030111
0.000371001
0.00036746
0.000364267
0.000361365
0.000358709
0.000356263
0.000353997
0.00035189
0.000349921
0.000348074
0.000346336
0.000344696
0.000343144
0.000341671
0.000340271
0.000338936
0.000337661
0.000336442
0.000335273
0.000334152
0.000333074
0.000332037
0.000331037
0.000330073
0.000329142
0.000328241
0.00032737
0.000326525
0.000325707
0.000324913
0.000324142
0.000323392
0.000322663
0.000321954
0.000321263
0.00032059
0.000319933
0.000319293
0.000318668
0.000318058
0.000317461
0.000316878
0.000316308
0.000315751
0.000315205
0.00031467
0.000314147
0.000313634
0.000313131
0.000312638
0.000312154
0.000311679
0.000311213
0.000310755
0.000310306
0.000309864
0.00030943
0.000309004
0.000308584
0.000308172
0.000307766
0.000307367
0.000306974
0.000306587
0.000306206
0.00030583
0.000305461
0.000305096
0.000304737
0.000304384
0.000304035
0.000303691
0.000303352
0.000303017
0.000302687
0.000302361
0.00030204
0.000301723
0.00030141
0.000301109
0.000371001
0.00036746
0.000364267
0.000361365
0.000358709
0.000356263
0.000353997
0.00035189
0.000349921
0.000348074
0.000346336
0.000344696
0.000343144
0.000341671
0.000340271
0.000338936
0.000337661
0.000336442
0.000335273
0.000334152
0.000333074
0.000332037
0.000331037
0.000330073
0.000329141
0.000328241
0.000327369
0.000326525
0.000325707
0.000324913
0.000324141
0.000323392
0.000322663
0.000321953
0.000321262
0.000320589
0.000319933
0.000319292
0.000318667
0.000318057
0.000317461
0.000316878
0.000316308
0.00031575
0.000315204
0.00031467
0.000314146
0.000313633
0.00031313
0.000312637
0.000312153
0.000311679
0.000311213
0.000310755
0.000310305
0.000309864
0.00030943
0.000309003
0.000308584
0.000308171
0.000307765
0.000307366
0.000306973
0.000306586
0.000306205
0.00030583
0.00030546
0.000305096
0.000304737
0.000304383
0.000304034
0.00030369
0.000303351
0.000303017
0.000302687
0.000302361
0.00030204
0.000301722
0.000301409
0.000301108
0.000371001
0.00036746
0.000364267
0.000361365
0.000358709
0.000356263
0.000353997
0.00035189
0.000349921
0.000348074
0.000346336
0.000344696
0.000343144
0.000341671
0.000340271
0.000338936
0.000337661
0.000336442
0.000335273
0.000334152
0.000333074
0.000332037
0.000331037
0.000330073
0.000329141
0.000328241
0.000327369
0.000326525
0.000325707
0.000324912
0.000324141
0.000323391
0.000322662
0.000321953
0.000321262
0.000320589
0.000319932
0.000319292
0.000318667
0.000318057
0.00031746
0.000316877
0.000316307
0.00031575
0.000315204
0.000314669
0.000314146
0.000313633
0.00031313
0.000312637
0.000312153
0.000311678
0.000311212
0.000310754
0.000310305
0.000309863
0.000309429
0.000309003
0.000308583
0.000308171
0.000307765
0.000307366
0.000306972
0.000306585
0.000306204
0.000305829
0.00030546
0.000305095
0.000304736
0.000304383
0.000304034
0.00030369
0.000303351
0.000303016
0.000302686
0.00030236
0.000302039
0.000301722
0.000301409
0.000301108
0.000371001
0.00036746
0.000364267
0.000361365
0.000358709
0.000356263
0.000353997
0.00035189
0.000349921
0.000348074
0.000346336
0.000344696
0.000343144
0.000341671
0.000340271
0.000338936
0.000337661
0.000336442
0.000335273
0.000334152
0.000333074
0.000332037
0.000331037
0.000330073
0.000329141
0.000328241
0.000327369
0.000326525
0.000325706
0.000324912
0.000324141
0.000323391
0.000322662
0.000321953
0.000321262
0.000320588
0.000319932
0.000319292
0.000318667
0.000318056
0.00031746
0.000316877
0.000316307
0.000315749
0.000315203
0.000314669
0.000314145
0.000313632
0.000313129
0.000312636
0.000312152
0.000311678
0.000311212
0.000310754
0.000310304
0.000309863
0.000309429
0.000309002
0.000308583
0.00030817
0.000307764
0.000307365
0.000306972
0.000306585
0.000306204
0.000305829
0.000305459
0.000305095
0.000304736
0.000304382
0.000304033
0.000303689
0.00030335
0.000303016
0.000302685
0.00030236
0.000302038
0.000301721
0.000301408
0.000301107
0.000371001
0.00036746
0.000364267
0.000361365
0.000358709
0.000356263
0.000353997
0.00035189
0.000349921
0.000348074
0.000346336
0.000344696
0.000343144
0.000341671
0.000340271
0.000338936
0.000337661
0.000336442
0.000335273
0.000334152
0.000333074
0.000332036
0.000331037
0.000330072
0.000329141
0.000328241
0.000327369
0.000326525
0.000325706
0.000324912
0.000324141
0.000323391
0.000322662
0.000321952
0.000321261
0.000320588
0.000319932
0.000319291
0.000318666
0.000318056
0.00031746
0.000316877
0.000316307
0.000315749
0.000315203
0.000314669
0.000314145
0.000313632
0.000313129
0.000312636
0.000312152
0.000311677
0.000311211
0.000310753
0.000310304
0.000309862
0.000309428
0.000309002
0.000308582
0.00030817
0.000307764
0.000307365
0.000306972
0.000306585
0.000306204
0.000305828
0.000305459
0.000305094
0.000304735
0.000304382
0.000304033
0.000303689
0.00030335
0.000303015
0.000302685
0.000302359
0.000302038
0.000301721
0.000301408
0.000301107
0.000371001
0.00036746
0.000364267
0.000361365
0.000358709
0.000356263
0.000353997
0.00035189
0.000349921
0.000348074
0.000346336
0.000344696
0.000343144
0.000341671
0.000340271
0.000338936
0.000337661
0.000336442
0.000335273
0.000334152
0.000333074
0.000332036
0.000331037
0.000330072
0.000329141
0.00032824
0.000327369
0.000326525
0.000325706
0.000324912
0.00032414
0.000323391
0.000322662
0.000321952
0.000321261
0.000320588
0.000319931
0.000319291
0.000318666
0.000318056
0.000317459
0.000316876
0.000316306
0.000315749
0.000315203
0.000314668
0.000314145
0.000313632
0.000313129
0.000312635
0.000312152
0.000311677
0.000311211
0.000310753
0.000310304
0.000309862
0.000309428
0.000309001
0.000308582
0.000308169
0.000307764
0.000307364
0.000306971
0.000306584
0.000306203
0.000305828
0.000305458
0.000305094
0.000304735
0.000304381
0.000304032
0.000303688
0.000303349
0.000303015
0.000302685
0.000302359
0.000302038
0.00030172
0.000301407
0.000301107
0.000371001
0.00036746
0.000364267
0.000361365
0.000358709
0.000356263
0.000353997
0.00035189
0.000349921
0.000348074
0.000346336
0.000344696
0.000343144
0.000341671
0.000340271
0.000338936
0.000337661
0.000336442
0.000335273
0.000334152
0.000333074
0.000332036
0.000331037
0.000330072
0.000329141
0.00032824
0.000327369
0.000326524
0.000325706
0.000324912
0.00032414
0.000323391
0.000322661
0.000321952
0.000321261
0.000320588
0.000319931
0.000319291
0.000318666
0.000318055
0.000317459
0.000316876
0.000316306
0.000315748
0.000315202
0.000314668
0.000314144
0.000313631
0.000313128
0.000312635
0.000312151
0.000311676
0.00031121
0.000310753
0.000310303
0.000309862
0.000309428
0.000309001
0.000308582
0.000308169
0.000307763
0.000307364
0.000306971
0.000306584
0.000306203
0.000305828
0.000305458
0.000305094
0.000304735
0.000304381
0.000304032
0.000303688
0.000303349
0.000303014
0.000302684
0.000302359
0.000302037
0.00030172
0.000301407
0.000301106
0.000371001
0.00036746
0.000364267
0.000361365
0.000358709
0.000356263
0.000353997
0.00035189
0.000349921
0.000348074
0.000346336
0.000344696
0.000343144
0.000341671
0.000340271
0.000338936
0.000337661
0.000336442
0.000335273
0.000334152
0.000333074
0.000332036
0.000331037
0.000330072
0.000329141
0.00032824
0.000327369
0.000326524
0.000325706
0.000324912
0.00032414
0.00032339
0.000322661
0.000321952
0.000321261
0.000320588
0.000319931
0.000319291
0.000318666
0.000318055
0.000317459
0.000316876
0.000316306
0.000315748
0.000315202
0.000314668
0.000314144
0.000313631
0.000313128
0.000312635
0.000312151
0.000311676
0.00031121
0.000310753
0.000310303
0.000309862
0.000309428
0.000309001
0.000308582
0.000308169
0.000307763
0.000307364
0.000306971
0.000306584
0.000306203
0.000305827
0.000305458
0.000305093
0.000304734
0.000304381
0.000304032
0.000303688
0.000303349
0.000303014
0.000302684
0.000302358
0.000302037
0.00030172
0.000301407
0.000301106
0.000371001
0.00036746
0.000364267
0.000361365
0.000358709
0.000356263
0.000353997
0.00035189
0.000349921
0.000348074
0.000346336
0.000344696
0.000343144
0.000341671
0.000340271
0.000338936
0.000337661
0.000336442
0.000335273
0.000334152
0.000333074
0.000332036
0.000331037
0.000330072
0.000329141
0.00032824
0.000327369
0.000326524
0.000325706
0.000324911
0.00032414
0.00032339
0.000322661
0.000321952
0.000321261
0.000320587
0.000319931
0.000319291
0.000318666
0.000318055
0.000317459
0.000316876
0.000316306
0.000315748
0.000315202
0.000314668
0.000314144
0.000313631
0.000313128
0.000312635
0.000312151
0.000311676
0.00031121
0.000310753
0.000310303
0.000309861
0.000309428
0.000309001
0.000308581
0.000308169
0.000307763
0.000307364
0.000306971
0.000306584
0.000306203
0.000305827
0.000305458
0.000305093
0.000304734
0.000304381
0.000304032
0.000303688
0.000303349
0.000303014
0.000302684
0.000302358
0.000302037
0.00030172
0.000301407
0.000301106
0.000371001
0.00036746
0.000364267
0.000361365
0.000358709
0.000356263
0.000353997
0.00035189
0.000349921
0.000348074
0.000346336
0.000344696
0.000343144
0.000341671
0.000340271
0.000338936
0.000337661
0.000336442
0.000335273
0.000334152
0.000333074
0.000332036
0.000331037
0.000330072
0.000329141
0.00032824
0.000327369
0.000326524
0.000325706
0.000324911
0.00032414
0.00032339
0.000322661
0.000321952
0.000321261
0.000320587
0.000319931
0.000319291
0.000318666
0.000318055
0.000317459
0.000316876
0.000316306
0.000315748
0.000315202
0.000314668
0.000314144
0.000313631
0.000313128
0.000312635
0.000312151
0.000311676
0.00031121
0.000310753
0.000310303
0.000309862
0.000309428
0.000309001
0.000308581
0.000308169
0.000307763
0.000307364
0.000306971
0.000306584
0.000306203
0.000305827
0.000305458
0.000305093
0.000304734
0.000304381
0.000304032
0.000303688
0.000303349
0.000303014
0.000302684
0.000302358
0.000302037
0.00030172
0.000301407
0.000301106
0.000371001
0.00036746
0.000364267
0.000361365
0.000358709
0.000356263
0.000353997
0.00035189
0.000349921
0.000348074
0.000346336
0.000344696
0.000343144
0.000341671
0.000340271
0.000338936
0.000337661
0.000336442
0.000335273
0.000334152
0.000333074
0.000332036
0.000331037
0.000330072
0.000329141
0.00032824
0.000327369
0.000326524
0.000325706
0.000324912
0.00032414
0.00032339
0.000322661
0.000321952
0.000321261
0.000320588
0.000319931
0.000319291
0.000318666
0.000318055
0.000317459
0.000316876
0.000316306
0.000315748
0.000315202
0.000314668
0.000314144
0.000313631
0.000313128
0.000312635
0.000312151
0.000311676
0.00031121
0.000310753
0.000310303
0.000309862
0.000309428
0.000309001
0.000308582
0.000308169
0.000307763
0.000307364
0.000306971
0.000306584
0.000306203
0.000305827
0.000305458
0.000305093
0.000304735
0.000304381
0.000304032
0.000303688
0.000303349
0.000303014
0.000302684
0.000302358
0.000302037
0.00030172
0.000301407
0.000301106
0.000371001
0.00036746
0.000364267
0.000361365
0.000358709
0.000356263
0.000353997
0.00035189
0.000349921
0.000348074
0.000346336
0.000344696
0.000343144
0.000341671
0.000340271
0.000338936
0.000337661
0.000336442
0.000335273
0.000334152
0.000333074
0.000332036
0.000331037
0.000330072
0.000329141
0.00032824
0.000327369
0.000326525
0.000325706
0.000324912
0.00032414
0.000323391
0.000322662
0.000321952
0.000321261
0.000320588
0.000319931
0.000319291
0.000318666
0.000318055
0.000317459
0.000316876
0.000316306
0.000315748
0.000315202
0.000314668
0.000314144
0.000313631
0.000313128
0.000312635
0.000312151
0.000311677
0.00031121
0.000310753
0.000310303
0.000309862
0.000309428
0.000309001
0.000308582
0.000308169
0.000307763
0.000307364
0.000306971
0.000306584
0.000306203
0.000305828
0.000305458
0.000305094
0.000304735
0.000304381
0.000304032
0.000303688
0.000303349
0.000303014
0.000302684
0.000302359
0.000302037
0.00030172
0.000301407
0.000301106
0.000371001
0.00036746
0.000364267
0.000361365
0.000358709
0.000356263
0.000353997
0.00035189
0.000349921
0.000348074
0.000346336
0.000344696
0.000343144
0.000341671
0.000340271
0.000338936
0.000337661
0.000336442
0.000335273
0.000334152
0.000333074
0.000332036
0.000331037
0.000330072
0.000329141
0.00032824
0.000327369
0.000326525
0.000325706
0.000324912
0.00032414
0.000323391
0.000322662
0.000321952
0.000321261
0.000320588
0.000319931
0.000319291
0.000318666
0.000318056
0.000317459
0.000316876
0.000316306
0.000315749
0.000315203
0.000314668
0.000314145
0.000313632
0.000313129
0.000312635
0.000312152
0.000311677
0.000311211
0.000310753
0.000310304
0.000309862
0.000309428
0.000309002
0.000308582
0.00030817
0.000307764
0.000307364
0.000306971
0.000306584
0.000306203
0.000305828
0.000305458
0.000305094
0.000304735
0.000304381
0.000304032
0.000303689
0.000303349
0.000303015
0.000302685
0.000302359
0.000302038
0.00030172
0.000301407
0.000301107
0.000371001
0.00036746
0.000364267
0.000361365
0.000358709
0.000356263
0.000353997
0.00035189
0.000349921
0.000348074
0.000346336
0.000344696
0.000343144
0.000341671
0.000340271
0.000338936
0.000337661
0.000336442
0.000335273
0.000334152
0.000333074
0.000332036
0.000331037
0.000330073
0.000329141
0.000328241
0.000327369
0.000326525
0.000325706
0.000324912
0.000324141
0.000323391
0.000322662
0.000321952
0.000321261
0.000320588
0.000319932
0.000319291
0.000318666
0.000318056
0.00031746
0.000316877
0.000316307
0.000315749
0.000315203
0.000314669
0.000314145
0.000313632
0.000313129
0.000312636
0.000312152
0.000311677
0.000311211
0.000310754
0.000310304
0.000309862
0.000309429
0.000309002
0.000308582
0.00030817
0.000307764
0.000307365
0.000306972
0.000306585
0.000306204
0.000305828
0.000305459
0.000305094
0.000304735
0.000304382
0.000304033
0.000303689
0.00030335
0.000303015
0.000302685
0.000302359
0.000302038
0.000301721
0.000301408
0.000301107
0.000371001
0.00036746
0.000364267
0.000361365
0.000358709
0.000356263
0.000353997
0.00035189
0.000349921
0.000348074
0.000346336
0.000344696
0.000343144
0.000341671
0.000340271
0.000338936
0.000337661
0.000336442
0.000335273
0.000334152
0.000333074
0.000332037
0.000331037
0.000330073
0.000329141
0.000328241
0.000327369
0.000326525
0.000325706
0.000324912
0.000324141
0.000323391
0.000322662
0.000321953
0.000321262
0.000320588
0.000319932
0.000319292
0.000318667
0.000318056
0.00031746
0.000316877
0.000316307
0.000315749
0.000315204
0.000314669
0.000314145
0.000313632
0.000313129
0.000312636
0.000312152
0.000311678
0.000311212
0.000310754
0.000310305
0.000309863
0.000309429
0.000309002
0.000308583
0.00030817
0.000307764
0.000307365
0.000306972
0.000306585
0.000306204
0.000305829
0.000305459
0.000305095
0.000304736
0.000304382
0.000304033
0.000303689
0.00030335
0.000303016
0.000302686
0.00030236
0.000302039
0.000301721
0.000301408
0.000301107
0.000371001
0.00036746
0.000364267
0.000361365
0.000358709
0.000356263
0.000353997
0.00035189
0.000349921
0.000348074
0.000346336
0.000344696
0.000343144
0.000341671
0.000340271
0.000338936
0.000337661
0.000336442
0.000335273
0.000334152
0.000333074
0.000332037
0.000331037
0.000330073
0.000329141
0.000328241
0.000327369
0.000326525
0.000325707
0.000324912
0.000324141
0.000323391
0.000322662
0.000321953
0.000321262
0.000320589
0.000319932
0.000319292
0.000318667
0.000318057
0.00031746
0.000316878
0.000316308
0.00031575
0.000315204
0.000314669
0.000314146
0.000313633
0.00031313
0.000312637
0.000312153
0.000311678
0.000311212
0.000310754
0.000310305
0.000309863
0.000309429
0.000309003
0.000308583
0.000308171
0.000307765
0.000307366
0.000306973
0.000306586
0.000306205
0.000305829
0.00030546
0.000305095
0.000304736
0.000304383
0.000304034
0.00030369
0.000303351
0.000303016
0.000302686
0.00030236
0.000302039
0.000301722
0.000301409
0.000301108
0.000371001
0.00036746
0.000364267
0.000361365
0.000358709
0.000356263
0.000353997
0.00035189
0.000349921
0.000348074
0.000346336
0.000344696
0.000343144
0.000341671
0.000340271
0.000338936
0.000337661
0.000336442
0.000335273
0.000334152
0.000333074
0.000332037
0.000331037
0.000330073
0.000329141
0.000328241
0.000327369
0.000326525
0.000325707
0.000324913
0.000324141
0.000323392
0.000322663
0.000321953
0.000321262
0.000320589
0.000319933
0.000319292
0.000318668
0.000318057
0.000317461
0.000316878
0.000316308
0.00031575
0.000315204
0.00031467
0.000314146
0.000313633
0.00031313
0.000312637
0.000312153
0.000311679
0.000311213
0.000310755
0.000310306
0.000309864
0.00030943
0.000309003
0.000308584
0.000308171
0.000307766
0.000307366
0.000306973
0.000306586
0.000306205
0.00030583
0.00030546
0.000305096
0.000304737
0.000304383
0.000304034
0.00030369
0.000303351
0.000303017
0.000302687
0.000302361
0.00030204
0.000301722
0.000301409
0.000301109
0.000371001
0.00036746
0.000364267
0.000361365
0.000358709
0.000356263
0.000353997
0.00035189
0.000349921
0.000348074
0.000346336
0.000344696
0.000343144
0.000341671
0.000340271
0.000338936
0.000337661
0.000336442
0.000335273
0.000334152
0.000333074
0.000332037
0.000331037
0.000330073
0.000329142
0.000328241
0.00032737
0.000326525
0.000325707
0.000324913
0.000324142
0.000323392
0.000322663
0.000321954
0.000321263
0.00032059
0.000319933
0.000319293
0.000318668
0.000318058
0.000317461
0.000316879
0.000316309
0.000315751
0.000315205
0.000314671
0.000314147
0.000313634
0.000313131
0.000312638
0.000312154
0.000311679
0.000311213
0.000310756
0.000310306
0.000309865
0.000309431
0.000309004
0.000308585
0.000308172
0.000307766
0.000307367
0.000306974
0.000306587
0.000306206
0.00030583
0.000305461
0.000305097
0.000304738
0.000304384
0.000304035
0.000303691
0.000303352
0.000303017
0.000302687
0.000302362
0.00030204
0.000301723
0.00030141
0.000301109
0.000371001
0.00036746
0.000364267
0.000361365
0.000358709
0.000356263
0.000353997
0.00035189
0.000349921
0.000348074
0.000346336
0.000344696
0.000343144
0.000341672
0.000340271
0.000338936
0.000337661
0.000336442
0.000335273
0.000334152
0.000333074
0.000332037
0.000331037
0.000330073
0.000329142
0.000328241
0.00032737
0.000326526
0.000325707
0.000324913
0.000324142
0.000323392
0.000322663
0.000321954
0.000321263
0.00032059
0.000319934
0.000319293
0.000318668
0.000318058
0.000317462
0.000316879
0.000316309
0.000315751
0.000315206
0.000314671
0.000314147
0.000313634
0.000313132
0.000312638
0.000312155
0.00031168
0.000311214
0.000310756
0.000310307
0.000309865
0.000309431
0.000309005
0.000308585
0.000308173
0.000307767
0.000307367
0.000306974
0.000306587
0.000306206
0.000305831
0.000305461
0.000305097
0.000304738
0.000304384
0.000304036
0.000303692
0.000303352
0.000303018
0.000302688
0.000302362
0.000302041
0.000301724
0.000301411
0.00030111
0.000371001
0.00036746
0.000364267
0.000361365
0.000358709
0.000356263
0.000353997
0.00035189
0.000349921
0.000348074
0.000346336
0.000344696
0.000343144
0.000341672
0.000340271
0.000338936
0.000337661
0.000336442
0.000335273
0.000334152
0.000333074
0.000332037
0.000331037
0.000330073
0.000329142
0.000328241
0.00032737
0.000326526
0.000325707
0.000324913
0.000324142
0.000323393
0.000322664
0.000321954
0.000321263
0.00032059
0.000319934
0.000319294
0.000318669
0.000318059
0.000317462
0.000316879