/*--------------------------------*- C++ -*----------------------------------*\
| =========                 |                                                 |
| \\      /  F ield         | OpenFOAM: The Open Source CFD Toolbox           |
|  \\    /   O peration     | Version:  2512                                  |
|   \\  /    A nd           | Website:  www.openfoam.com                      |
|    \\/     M anipulation  |                                                 |
\*---------------------------------------------------------------------------*/
FoamFile
{
    version     2.0;
    format      ascii;
    arch        "LSB;label=32;scalar=64";
    class       volScalarField;
    location    "139";
    object      p;
}
// * * * * * * * * * * * * * * * * * * * * * * * * * * * * * * * * * * * * * //

dimensions      [0 2 -2 0 0 0 0];

internalField   nonuniform List<scalar> 
229904
(
1.87951e-05
1.87718e-05
1.87118e-05
1.86154e-05
1.84814e-05
1.83044e-05
1.80771e-05
1.77907e-05
1.74345e-05
1.69961e-05
1.64609e-05
1.58122e-05
1.50319e-05
1.41002e-05
1.29967e-05
1.17014e-05
1.01959e-05
8.466e-06
6.50346e-06
4.3095e-06
1.89781e-06
-7.0234e-07
-3.44357e-06
-6.25921e-06
-9.06411e-06
-1.17581e-05
-1.42324e-05
-1.63794e-05
-1.81035e-05
-1.93329e-05
-2.0029e-05
-2.0191e-05
-1.98555e-05
-1.90902e-05
-1.79833e-05
-1.66321e-05
-1.51317e-05
-1.35669e-05
-1.20079e-05
-1.05081e-05
-9.10493e-06
-7.82156e-06
-6.66966e-06
-5.65188e-06
-4.76444e-06
-3.9993e-06
-3.34586e-06
-2.79231e-06
-2.32656e-06
-1.93695e-06
-1.61257e-06
-1.34354e-06
-1.12111e-06
-9.37611e-07
-7.8646e-07
-6.62043e-07
-5.59624e-07
-4.75236e-07
-4.05577e-07
-3.47913e-07
-2.99991e-07
-2.59962e-07
-2.26319e-07
-1.97834e-07
-1.7351e-07
-1.5254e-07
-1.34273e-07
-1.18183e-07
-1.03855e-07
-9.09617e-08
-7.92476e-08
-6.85186e-08
-5.86254e-08
-4.94548e-08
-4.0917e-08
-3.29403e-08
-2.54617e-08
-1.84342e-08
-1.17483e-08
-6.06757e-09
1.88022e-05
1.87791e-05
1.87196e-05
1.86242e-05
1.84914e-05
1.8316e-05
1.80907e-05
1.78066e-05
1.74533e-05
1.70181e-05
1.64866e-05
1.58421e-05
1.50662e-05
1.41391e-05
1.304e-05
1.17487e-05
1.02463e-05
8.51808e-06
6.55512e-06
4.35794e-06
1.93956e-06
-6.71265e-07
-3.4274e-06
-6.26196e-06
-9.08894e-06
-1.18067e-05
-1.43044e-05
-1.6472e-05
-1.82115e-05
-1.94492e-05
-2.01453e-05
-2.02994e-05
-1.99494e-05
-1.91652e-05
-1.80374e-05
-1.66657e-05
-1.51468e-05
-1.35667e-05
-1.19959e-05
-1.04877e-05
-9.07916e-06
-7.79306e-06
-6.64041e-06
-5.62332e-06
-4.73756e-06
-3.97469e-06
-3.3238e-06
-2.77288e-06
-2.30971e-06
-1.92249e-06
-1.60029e-06
-1.33321e-06
-1.11248e-06
-9.3044e-07
-7.80533e-07
-6.57165e-07
-5.55624e-07
-4.71966e-07
-4.02911e-07
-3.45743e-07
-2.98226e-07
-2.58529e-07
-2.25155e-07
-1.9689e-07
-1.72745e-07
-1.51921e-07
-1.33773e-07
-1.17783e-07
-1.03536e-07
-9.07093e-08
-7.90513e-08
-6.83694e-08
-5.85164e-08
-4.93796e-08
-4.08701e-08
-3.29158e-08
-2.54536e-08
-1.8434e-08
-1.17525e-08
-6.02824e-09
1.88162e-05
1.87935e-05
1.87351e-05
1.86415e-05
1.85111e-05
1.83389e-05
1.81174e-05
1.78381e-05
1.74903e-05
1.70617e-05
1.65375e-05
1.59011e-05
1.51339e-05
1.42158e-05
1.31256e-05
1.18422e-05
1.03462e-05
8.62135e-06
6.65771e-06
4.45432e-06
2.02286e-06
-6.08983e-07
-3.39456e-06
-6.26657e-06
-9.13742e-06
-1.19025e-05
-1.4447e-05
-1.66557e-05
-1.8426e-05
-1.96802e-05
-2.03766e-05
-2.0515e-05
-2.01361e-05
-1.9314e-05
-1.81447e-05
-1.67321e-05
-1.51765e-05
-1.3566e-05
-1.19717e-05
-1.04469e-05
-9.02797e-06
-7.73648e-06
-6.58238e-06
-5.56671e-06
-4.68429e-06
-3.92592e-06
-3.28011e-06
-2.73442e-06
-2.27633e-06
-1.89387e-06
-1.57599e-06
-1.31276e-06
-1.09538e-06
-9.1624e-07
-7.68798e-07
-6.47509e-07
-5.47707e-07
-4.65495e-07
-3.97635e-07
-3.41449e-07
-2.94736e-07
-2.55693e-07
-2.22852e-07
-1.95019e-07
-1.71226e-07
-1.50689e-07
-1.32775e-07
-1.16976e-07
-1.02886e-07
-9.01886e-08
-7.86385e-08
-6.80479e-08
-5.8273e-08
-4.92034e-08
-4.07511e-08
-3.28437e-08
-2.54172e-08
-1.842e-08
-1.17466e-08
-5.99773e-09
1.88366e-05
1.88146e-05
1.87579e-05
1.86669e-05
1.85401e-05
1.83725e-05
1.81568e-05
1.78844e-05
1.75449e-05
1.71259e-05
1.66125e-05
1.59882e-05
1.5234e-05
1.43292e-05
1.32522e-05
1.19809e-05
1.04943e-05
8.7748e-06
6.81041e-06
4.59812e-06
2.14756e-06
-5.15229e-07
-3.34438e-06
-6.27203e-06
-9.20826e-06
-1.20441e-05
-1.46586e-05
-1.69292e-05
-1.87458e-05
-2.00248e-05
-2.07214e-05
-2.08361e-05
-2.04135e-05
-1.95348e-05
-1.83031e-05
-1.68295e-05
-1.52193e-05
-1.35635e-05
-1.19347e-05
-1.03855e-05
-8.95135e-06
-7.65214e-06
-6.49611e-06
-5.48272e-06
-4.60538e-06
-3.85377e-06
-3.21555e-06
-2.67763e-06
-2.22709e-06
-1.85168e-06
-1.5402e-06
-1.28265e-06
-1.07023e-06
-8.95365e-07
-7.51557e-07
-6.33331e-07
-5.36091e-07
-4.56007e-07
-3.89904e-07
-3.35162e-07
-2.89629e-07
-2.51546e-07
-2.19485e-07
-1.92286e-07
-1.69007e-07
-1.4889e-07
-1.31317e-07
-1.15795e-07
-1.01933e-07
-8.94239e-08
-7.8031e-08
-6.75739e-08
-5.79142e-08
-4.89444e-08
-4.05778e-08
-3.27415e-08
-2.53702e-08
-1.84098e-08
-1.17525e-08
-5.98805e-09
1.88632e-05
1.8842e-05
1.87875e-05
1.86999e-05
1.85778e-05
1.84161e-05
1.82079e-05
1.79446e-05
1.76159e-05
1.72093e-05
1.67101e-05
1.61015e-05
1.53643e-05
1.44772e-05
1.34176e-05
1.21621e-05
1.06883e-05
8.97622e-06
7.01138e-06
4.78799e-06
2.31294e-06
-3.89965e-07
-3.276e-06
-6.2767e-06
-9.29914e-06
-1.22287e-05
-1.49362e-05
-1.72892e-05
-1.91675e-05
-2.04796e-05
-2.11764e-05
-2.1259e-05
-2.07782e-05
-1.98237e-05
-1.85092e-05
-1.69549e-05
-1.52728e-05
-1.3558e-05
-1.18841e-05
-1.03035e-05
-8.84986e-06
-7.54097e-06
-6.38281e-06
-5.37269e-06
-4.50222e-06
-3.75961e-06
-3.1314e-06
-2.60372e-06
-2.16306e-06
-1.79686e-06
-1.49373e-06
-1.24358e-06
-1.03762e-06
-8.68299e-07
-7.2921e-07
-6.14958e-07
-5.2104e-07
-4.43714e-07
-3.79887e-07
-3.27013e-07
-2.83006e-07
-2.46165e-07
-2.15112e-07
-1.88731e-07
-1.66118e-07
-1.46541e-07
-1.29409e-07
-1.14246e-07
-1.00678e-07
-8.8412e-08
-7.7223e-08
-6.69402e-08
-5.74316e-08
-4.85935e-08
-4.03405e-08
-3.25993e-08
-2.53026e-08
-1.83937e-08
-1.17618e-08
-5.98849e-09
1.88952e-05
1.8875e-05
1.88231e-05
1.87396e-05
1.86231e-05
1.84688e-05
1.82696e-05
1.80173e-05
1.77016e-05
1.73101e-05
1.68283e-05
1.62388e-05
1.55223e-05
1.46568e-05
1.36187e-05
1.2383e-05
1.09252e-05
9.22287e-06
7.25827e-06
5.02219e-06
2.51808e-06
-2.33136e-07
-3.18832e-06
-6.27842e-06
-9.40703e-06
-1.24526e-05
-1.52756e-05
-1.77313e-05
-1.96868e-05
-2.10402e-05
-2.1737e-05
-2.17795e-05
-2.12254e-05
-2.01763e-05
-1.87589e-05
-1.71049e-05
-1.53346e-05
-1.35477e-05
-1.18192e-05
-1.02009e-05
-8.7242e-06
-7.40418e-06
-6.24397e-06
-5.2383e-06
-4.37654e-06
-3.64514e-06
-3.02928e-06
-2.51413e-06
-2.08555e-06
-1.73057e-06
-1.43758e-06
-1.19641e-06
-9.98272e-07
-8.35668e-07
-7.02283e-07
-5.92832e-07
-5.02923e-07
-4.28925e-07
-3.67844e-07
-3.17221e-07
-2.75052e-07
-2.39707e-07
-2.09869e-07
-1.84475e-07
-1.62663e-07
-1.43738e-07
-1.27136e-07
-1.12405e-07
-9.91895e-08
-8.72146e-08
-7.62697e-08
-6.61951e-08
-5.68667e-08
-4.81851e-08
-4.00664e-08
-3.24365e-08
-2.52265e-08
-1.83769e-08
-1.1774e-08
-5.99315e-09
1.89319e-05
1.89129e-05
1.8864e-05
1.87852e-05
1.86752e-05
1.85292e-05
1.83405e-05
1.81008e-05
1.78002e-05
1.74262e-05
1.69643e-05
1.63972e-05
1.57048e-05
1.48646e-05
1.38517e-05
1.26396e-05
1.12011e-05
9.51098e-06
7.54774e-06
5.29809e-06
2.76133e-06
-4.5186e-08
-3.08042e-06
-6.27491e-06
-9.52834e-06
-1.27111e-05
-1.56715e-05
-1.82498e-05
-2.02977e-05
-2.17005e-05
-2.2397e-05
-2.23908e-05
-2.17487e-05
-2.05866e-05
-1.90468e-05
-1.7275e-05
-1.54014e-05
-1.35306e-05
-1.17394e-05
-1.00781e-05
-8.57551e-06
-7.24345e-06
-6.08167e-06
-5.0818e-06
-4.23063e-06
-3.51257e-06
-2.91126e-06
-2.41077e-06
-1.99626e-06
-1.65429e-06
-1.37304e-06
-1.14224e-06
-9.53109e-07
-7.98235e-07
-6.71407e-07
-5.67469e-07
-4.82162e-07
-4.1198e-07
-3.54044e-07
-3.06001e-07
-2.65937e-07
-2.32304e-07
-2.03857e-07
-1.79592e-07
-1.58698e-07
-1.4052e-07
-1.24525e-07
-1.10289e-07
-9.74788e-08
-8.58381e-08
-7.51736e-08
-6.53383e-08
-5.62172e-08
-4.77159e-08
-3.97517e-08
-3.22502e-08
-2.51404e-08
-1.83604e-08
-1.17937e-08
-6.00912e-09
1.89725e-05
1.89547e-05
1.89091e-05
1.88356e-05
1.87328e-05
1.85961e-05
1.84189e-05
1.81933e-05
1.79094e-05
1.7555e-05
1.71154e-05
1.65732e-05
1.59079e-05
1.50963e-05
1.41122e-05
1.2927e-05
1.15112e-05
9.83584e-06
7.87554e-06
5.6122e-06
3.04029e-06
1.72909e-07
-2.9516e-06
-6.26368e-06
-9.65886e-06
-1.29985e-05
-1.61169e-05
-1.8837e-05
-2.09919e-05
-2.2452e-05
-2.3148e-05
-2.30849e-05
-2.23403e-05
-2.10471e-05
-1.93666e-05
-1.74604e-05
-1.54697e-05
-1.35051e-05
-1.16442e-05
-9.93584e-06
-8.4055e-06
-7.06112e-06
-5.89857e-06
-4.90599e-06
-4.06728e-06
-3.36455e-06
-2.77979e-06
-2.29587e-06
-1.89715e-06
-1.56975e-06
-1.30159e-06
-1.08233e-06
-9.03215e-07
-7.56915e-07
-6.37352e-07
-5.39517e-07
-4.593e-07
-3.93336e-07
-3.38876e-07
-2.9368e-07
-2.55938e-07
-2.24193e-07
-1.97278e-07
-1.74257e-07
-1.54375e-07
-1.37019e-07
-1.21691e-07
-1.07996e-07
-9.56264e-08
-8.43479e-08
-7.39854e-08
-6.44066e-08
-5.55061e-08
-4.7195e-08
-3.93925e-08
-3.20238e-08
-2.50163e-08
-1.83064e-08
-1.17768e-08
-5.99555e-09
1.90159e-05
1.89996e-05
1.89575e-05
1.88896e-05
1.87945e-05
1.86678e-05
1.8503e-05
1.82926e-05
1.80267e-05
1.76934e-05
1.7278e-05
1.67629e-05
1.61273e-05
1.53471e-05
1.43946e-05
1.32395e-05
1.18494e-05
1.01916e-05
8.23621e-06
5.95984e-06
3.35149e-06
4.1928e-07
-2.80178e-06
-6.24245e-06
-9.79405e-06
-1.33081e-05
-1.66036e-05
-1.94832e-05
-2.17591e-05
-2.3284e-05
-2.3979e-05
-2.38509e-05
-2.29899e-05
-2.15489e-05
-1.97108e-05
-1.76555e-05
-1.55363e-05
-1.34695e-05
-1.15337e-05
-9.77553e-06
-8.2165e-06
-6.86014e-06
-5.69795e-06
-4.71424e-06
-3.88977e-06
-3.2042e-06
-2.63772e-06
-2.17195e-06
-1.79045e-06
-1.47886e-06
-1.22488e-06
-1.01807e-06
-8.49741e-07
-7.12659e-07
-6.00895e-07
-5.09604e-07
-4.3484e-07
-3.73392e-07
-3.22651e-07
-2.80501e-07
-2.45242e-07
-2.15515e-07
-1.90239e-07
-1.6855e-07
-1.49752e-07
-1.33277e-07
-1.18665e-07
-1.05553e-07
-9.36571e-08
-8.27687e-08
-7.27321e-08
-6.34304e-08
-5.47687e-08
-4.66637e-08
-3.90368e-08
-3.18126e-08
-2.49176e-08
-1.82868e-08
-1.18017e-08
-6.02472e-09
1.90612e-05
1.90464e-05
1.9008e-05
1.8946e-05
1.8859e-05
1.87426e-05
1.85909e-05
1.83964e-05
1.81494e-05
1.78383e-05
1.74485e-05
1.69621e-05
1.63581e-05
1.56113e-05
1.4693e-05
1.35707e-05
1.2209e-05
1.05714e-05
8.6231e-06
6.33506e-06
3.69019e-06
6.90964e-07
-2.63165e-06
-6.20926e-06
-9.92913e-06
-1.36325e-05
-1.71214e-05
-2.01765e-05
-2.2586e-05
-2.41825e-05
-2.48762e-05
-2.46756e-05
-2.36855e-05
-2.20817e-05
-2.00713e-05
-1.78545e-05
-1.55977e-05
-1.34228e-05
-1.14088e-05
-9.5994e-06
-8.0117e-06
-6.64424e-06
-5.48379e-06
-4.51056e-06
-3.70195e-06
-3.03508e-06
-2.48828e-06
-2.0419e-06
-1.6787e-06
-1.38383e-06
-1.14478e-06
-9.51073e-07
-7.94051e-07
-6.66619e-07
-5.63007e-07
-4.78548e-07
-4.09471e-07
-3.5273e-07
-3.0586e-07
-2.66877e-07
-2.34196e-07
-2.06562e-07
-1.82984e-07
-1.62674e-07
-1.44995e-07
-1.29428e-07
-1.15552e-07
-1.03033e-07
-9.16187e-08
-8.11235e-08
-7.14131e-08
-6.2387e-08
-5.39609e-08
-4.60576e-08
-3.86008e-08
-3.15151e-08
-2.47265e-08
-1.81699e-08
-1.17297e-08
-5.97376e-09
1.91074e-05
1.9094e-05
1.90594e-05
1.90034e-05
1.89246e-05
1.88188e-05
1.86805e-05
1.85022e-05
1.82747e-05
1.79864e-05
1.76228e-05
1.71661e-05
1.65948e-05
1.5883e-05
1.50006e-05
1.3913e-05
1.2582e-05
1.09671e-05
9.02823e-06
6.7305e-06
4.05023e-06
9.83635e-07
-2.44304e-06
-6.16285e-06
-1.00594e-05
-1.39633e-05
-1.76588e-05
-2.09025e-05
-2.34564e-05
-2.51304e-05
-2.58223e-05
-2.55427e-05
-2.44127e-05
-2.26334e-05
-2.04392e-05
-1.80518e-05
-1.56512e-05
-1.33647e-05
-1.12711e-05
-9.41057e-06
-7.79511e-06
-6.41793e-06
-5.26075e-06
-4.29948e-06
-3.50809e-06
-2.8611e-06
-2.33496e-06
-1.90878e-06
-1.56451e-06
-1.28689e-06
-1.06318e-06
-8.82882e-07
-7.37419e-07
-6.19831e-07
-5.24523e-07
-4.47016e-07
-3.83722e-07
-3.31764e-07
-2.88827e-07
-2.5306e-07
-2.22998e-07
-1.97491e-07
-1.75642e-07
-1.56738e-07
-1.40203e-07
-1.25565e-07
-1.12443e-07
-1.00534e-07
-8.96157e-08
-7.95271e-08
-7.01558e-08
-6.14173e-08
-5.32383e-08
-4.5547e-08
-3.82692e-08
-3.13298e-08
-2.46547e-08
-1.81788e-08
-1.17863e-08
-6.0373e-09
1.91532e-05
1.91413e-05
1.91104e-05
1.90604e-05
1.89898e-05
1.88946e-05
1.87695e-05
1.86075e-05
1.83994e-05
1.8134e-05
1.77968e-05
1.73701e-05
1.68318e-05
1.61556e-05
1.531e-05
1.42585e-05
1.29598e-05
1.13694e-05
9.44236e-06
7.13735e-06
4.42389e-06
1.29144e-06
-2.2391e-06
-6.10289e-06
-1.01803e-05
-1.42917e-05
-1.82027e-05
-2.16444e-05
-2.43508e-05
-2.61068e-05
-2.67967e-05
-2.6433e-05
-2.51547e-05
-2.31909e-05
-2.0805e-05
-1.82417e-05
-1.56946e-05
-1.32958e-05
-1.11234e-05
-9.21317e-06
-7.57173e-06
-6.18655e-06
-5.03419e-06
-4.08616e-06
-3.31297e-06
-2.68657e-06
-2.18161e-06
-1.77595e-06
-1.45082e-06
-1.19054e-06
-9.82211e-07
-8.15325e-07
-6.81389e-07
-5.73598e-07
-4.86539e-07
-4.15927e-07
-3.58362e-07
-3.11135e-07
-2.72083e-07
-2.39486e-07
-2.11999e-07
-1.88581e-07
-1.68425e-07
-1.50895e-07
-1.35475e-07
-1.21739e-07
-1.09343e-07
-9.80188e-08
-8.75706e-08
-7.78652e-08
-6.88117e-08
-6.03416e-08
-5.23919e-08
-4.48961e-08
-3.77818e-08
-3.09744e-08
-2.44001e-08
-1.7996e-08
-1.16519e-08
-5.94081e-09
1.91977e-05
1.91872e-05
1.916e-05
1.91157e-05
1.9053e-05
1.89682e-05
1.8856e-05
1.87097e-05
1.85206e-05
1.82775e-05
1.79662e-05
1.75689e-05
1.70633e-05
1.64224e-05
1.56136e-05
1.45983e-05
1.33327e-05
1.17684e-05
9.85508e-06
7.54543e-06
4.8019e-06
1.60689e-06
-2.02452e-06
-6.03025e-06
-1.02881e-05
-1.46085e-05
-1.87385e-05
-2.2383e-05
-2.52464e-05
-2.70874e-05
-2.7775e-05
-2.73241e-05
-2.58929e-05
-2.37399e-05
-2.11592e-05
-1.84192e-05
-1.57266e-05
-1.3218e-05
-1.09695e-05
-9.01238e-06
-7.34737e-06
-5.95613e-06
-4.80997e-06
-3.87607e-06
-3.12157e-06
-2.51593e-06
-2.03206e-06
-1.64671e-06
-1.34041e-06
-1.09711e-06
-9.03797e-07
-7.49967e-07
-6.27231e-07
-5.28941e-07
-4.49873e-07
-3.85936e-07
-3.33916e-07
-2.91268e-07
-2.55973e-07
-2.26445e-07
-2.01453e-07
-1.80061e-07
-1.61551e-07
-1.45361e-07
-1.31032e-07
-1.18181e-07
-1.065e-07
-9.57513e-08
-8.57687e-08
-7.64448e-08
-6.77098e-08
-5.95109e-08
-5.17942e-08
-4.44977e-08
-3.75499e-08
-3.08767e-08
-2.44049e-08
-1.80727e-08
-1.17698e-08
-6.05739e-09
1.92398e-05
1.92306e-05
1.92068e-05
1.9168e-05
1.91128e-05
1.90377e-05
1.89377e-05
1.88064e-05
1.86353e-05
1.84135e-05
1.81268e-05
1.77575e-05
1.72833e-05
1.66765e-05
1.59033e-05
1.49236e-05
1.36909e-05
1.21531e-05
1.0255e-05
7.94334e-06
5.17357e-06
1.92096e-06
-1.80553e-06
-5.94713e-06
-1.03798e-05
-1.49048e-05
-1.92509e-05
-2.30972e-05
-2.61178e-05
-2.80441e-05
-2.87296e-05
-2.81912e-05
-2.66066e-05
-2.42653e-05
-2.14924e-05
-1.858e-05
-1.57472e-05
-1.31341e-05
-1.08144e-05
-8.81434e-06
-7.1287e-06
-5.73336e-06
-4.59451e-06
-3.67515e-06
-2.93923e-06
-2.3539e-06
-1.89047e-06
-1.52464e-06
-1.23633e-06
-1.00921e-06
-8.30147e-07
-6.88672e-07
-5.76506e-07
-4.87162e-07
-4.15604e-07
-3.57929e-07
-3.111e-07
-2.72731e-07
-2.40941e-07
-2.14265e-07
-1.91585e-07
-1.72064e-07
-1.55071e-07
-1.40112e-07
-1.2678e-07
-1.14734e-07
-1.03698e-07
-9.34631e-08
-8.38927e-08
-7.49042e-08
-6.64487e-08
-5.84879e-08
-5.09761e-08
-4.38543e-08
-3.70519e-08
-3.04945e-08
-2.41099e-08
-1.78399e-08
-1.15825e-08
-5.91857e-09
1.92785e-05
1.92705e-05
1.92499e-05
1.92161e-05
1.91678e-05
1.91015e-05
1.90128e-05
1.88952e-05
1.87406e-05
1.85383e-05
1.82744e-05
1.79312e-05
1.7486e-05
1.6911e-05
1.61713e-05
1.52253e-05
1.40241e-05
1.25123e-05
1.06303e-05
8.3189e-06
5.52715e-06
2.22331e-06
-1.58983e-06
-5.85715e-06
-1.04535e-05
-1.51718e-05
-1.97242e-05
-2.37646e-05
-2.69373e-05
-2.89467e-05
-2.96304e-05
-2.90071e-05
-2.72743e-05
-2.47518e-05
-2.17958e-05
-1.87207e-05
-1.57573e-05
-1.30481e-05
-1.0664e-05
-8.62591e-06
-6.92286e-06
-5.52519e-06
-4.39427e-06
-3.48924e-06
-2.77111e-06
-2.20494e-06
-1.7606e-06
-1.4129e-06
-1.14123e-06
-9.2901e-07
-7.63038e-07
-6.32886e-07
-5.3039e-07
-4.49221e-07
-3.84519e-07
-3.32561e-07
-2.90474e-07
-2.56015e-07
-2.27427e-07
-2.03359e-07
-1.82795e-07
-1.64991e-07
-1.49394e-07
-1.35573e-07
-1.23167e-07
-1.1187e-07
-1.01434e-07
-9.16805e-08
-8.24966e-08
-7.38244e-08
-6.56345e-08
-5.79015e-08
-5.05866e-08
-4.36328e-08
-3.69692e-08
-3.05208e-08
-2.42164e-08
-1.79995e-08
-1.17672e-08
-6.08578e-09
1.93129e-05
1.9306e-05
1.92881e-05
1.92588e-05
1.92165e-05
1.91581e-05
1.90792e-05
1.89738e-05
1.88339e-05
1.86489e-05
1.84052e-05
1.80851e-05
1.7666e-05
1.71194e-05
1.641e-05
1.54947e-05
1.43224e-05
1.2835e-05
1.09688e-05
8.65956e-06
5.85025e-06
2.5027e-06
-1.38622e-06
-5.76514e-06
-1.05085e-05
-1.54021e-05
-2.0143e-05
-2.43621e-05
-2.76759e-05
-2.9763e-05
-3.04455e-05
-2.97437e-05
-2.78737e-05
-2.51845e-05
-2.20612e-05
-1.88391e-05
-1.57591e-05
-1.29651e-05
-1.05249e-05
-8.45448e-06
-6.73735e-06
-5.33882e-06
-4.2159e-06
-3.3243e-06
-2.62246e-06
-2.07361e-06
-1.64639e-06
-1.31484e-06
-1.05793e-06
-8.5888e-07
-7.04441e-07
-5.84238e-07
-4.90216e-07
-4.16191e-07
-3.57467e-07
-3.10484e-07
-2.72515e-07
-2.41443e-07
-2.1562e-07
-1.93794e-07
-1.75042e-07
-1.58701e-07
-1.4429e-07
-1.31431e-07
-1.19805e-07
-1.09135e-07
-9.91985e-08
-8.98403e-08
-8.09718e-08
-7.25568e-08
-6.45833e-08
-5.70375e-08
-4.98859e-08
-4.30722e-08
-3.65243e-08
-3.01664e-08
-2.39283e-08
-1.77573e-08
-1.15602e-08
-5.92707e-09
1.93422e-05
1.93362e-05
1.93207e-05
1.9295e-05
1.92578e-05
1.92061e-05
1.91355e-05
1.90403e-05
1.89127e-05
1.87424e-05
1.85158e-05
1.82153e-05
1.78183e-05
1.7296e-05
1.66124e-05
1.57235e-05
1.45765e-05
1.31107e-05
1.12591e-05
8.95315e-06
6.13063e-06
2.7477e-06
-1.20406e-06
-5.67685e-06
-1.05451e-05
-1.55891e-05
-2.04931e-05
-2.48678e-05
-2.83053e-05
-3.0461e-05
-3.11432e-05
-3.0373e-05
-2.83834e-05
-2.55494e-05
-2.22819e-05
-1.89341e-05
-1.57553e-05
-1.28904e-05
-1.04039e-05
-8.30729e-06
-6.57933e-06
-5.18093e-06
-4.06544e-06
-3.18564e-06
-2.49785e-06
-1.96377e-06
-1.55106e-06
-1.23315e-06
-9.88655e-07
-8.0065e-07
-6.55868e-07
-5.43981e-07
-4.57032e-07
-3.88966e-07
-3.35227e-07
-2.92394e-07
-2.57863e-07
-2.2962e-07
-2.06109e-07
-1.86159e-07
-1.68922e-07
-1.53807e-07
-1.40392e-07
-1.28346e-07
-1.1738e-07
-1.07242e-07
-9.77305e-08
-8.8709e-08
-8.01095e-08
-7.19144e-08
-6.41267e-08
-5.67421e-08
-4.97307e-08
-4.30364e-08
-3.65851e-08
-3.03e-08
-2.41113e-08
-1.7968e-08
-1.17757e-08
-6.11034e-09
1.93657e-05
1.93605e-05
1.93468e-05
1.9324e-05
1.92908e-05
1.92442e-05
1.91802e-05
1.9093e-05
1.89751e-05
1.88163e-05
1.86032e-05
1.83182e-05
1.79386e-05
1.74356e-05
1.67726e-05
1.59047e-05
1.47781e-05
1.33299e-05
1.14907e-05
9.18855e-06
6.35692e-06
2.94748e-06
-1.05251e-06
-5.59834e-06
-1.05648e-05
-1.57279e-05
-2.07619e-05
-2.52616e-05
-2.87993e-05
-3.10112e-05
-3.16938e-05
-3.08692e-05
-2.87838e-05
-2.58342e-05
-2.24521e-05
-1.90053e-05
-1.57493e-05
-1.28295e-05
-1.03076e-05
-8.19124e-06
-6.45549e-06
-5.05776e-06
-3.94847e-06
-3.07817e-06
-2.40151e-06
-1.87905e-06
-1.47769e-06
-1.17038e-06
-9.35508e-07
-7.56045e-07
-6.18707e-07
-5.13214e-07
-4.31687e-07
-3.68176e-07
-3.18238e-07
-2.78561e-07
-2.46636e-07
-2.20531e-07
-1.9876e-07
-1.80213e-07
-1.64103e-07
-1.49894e-07
-1.37211e-07
-1.25757e-07
-1.15272e-07
-1.0552e-07
-9.63148e-08
-8.75342e-08
-7.91262e-08
-7.1088e-08
-6.34345e-08
-5.61681e-08
-4.92616e-08
-4.26576e-08
-3.628e-08
-3.00505e-08
-2.39e-08
-1.77804e-08
-1.16058e-08
-5.97484e-09
1.9383e-05
1.93783e-05
1.93658e-05
1.93451e-05
1.93146e-05
1.92717e-05
1.92123e-05
1.91307e-05
1.90196e-05
1.88688e-05
1.86651e-05
1.83909e-05
1.80236e-05
1.7534e-05
1.68855e-05
1.60326e-05
1.49205e-05
1.34852e-05
1.16553e-05
9.35649e-06
6.51951e-06
3.09274e-06
-9.39668e-07
-5.53527e-06
-1.05692e-05
-1.58149e-05
-2.09397e-05
-2.55274e-05
-2.91359e-05
-3.13882e-05
-3.20723e-05
-3.12103e-05
-2.90587e-05
-2.60289e-05
-2.25677e-05
-1.90529e-05
-1.57443e-05
-1.27871e-05
-1.02414e-05
-8.11198e-06
-6.37124e-06
-4.97421e-06
-3.86934e-06
-3.00564e-06
-2.33663e-06
-1.82212e-06
-1.4285e-06
-1.1284e-06
-9.00057e-07
-7.26377e-07
-5.94074e-07
-4.92899e-07
-4.1503e-07
-3.54588e-07
-3.07208e-07
-2.69654e-07
-2.39483e-07
-2.14818e-07
-1.94216e-07
-1.7661e-07
-1.61253e-07
-1.47648e-07
-1.35453e-07
-1.24395e-07
-1.14231e-07
-1.04737e-07
-9.57354e-08
-8.7115e-08
-7.88337e-08
-7.08991e-08
-6.33338e-08
-5.6145e-08
-4.93065e-08
-4.27598e-08
-3.64265e-08
-3.02268e-08
-2.40917e-08
-1.79741e-08
-1.17868e-08
-6.11981e-09
1.93936e-05
1.93892e-05
1.93774e-05
1.93578e-05
1.93289e-05
1.92879e-05
1.92309e-05
1.91524e-05
1.90449e-05
1.88985e-05
1.86998e-05
1.84315e-05
1.80708e-05
1.75885e-05
1.69479e-05
1.61032e-05
1.49991e-05
1.35709e-05
1.17465e-05
9.45026e-06
6.61135e-06
3.17655e-06
-8.71679e-07
-5.49213e-06
-1.05603e-05
-1.58482e-05
-2.10199e-05
-2.56534e-05
-2.92995e-05
-3.1574e-05
-3.22602e-05
-3.13806e-05
-2.91962e-05
-2.61265e-05
-2.26259e-05
-1.90772e-05
-1.57425e-05
-1.2767e-05
-1.02095e-05
-8.07366e-06
-6.33049e-06
-4.93385e-06
-3.83119e-06
-2.97075e-06
-2.30552e-06
-1.79492e-06
-1.40507e-06
-1.10849e-06
-8.83322e-07
-7.12442e-07
-5.82566e-07
-4.83462e-07
-4.07335e-07
-3.48344e-07
-3.02164e-07
-2.65598e-07
-2.36237e-07
-2.12229e-07
-1.92154e-07
-1.74964e-07
-1.59932e-07
-1.46582e-07
-1.34587e-07
-1.23691e-07
-1.13656e-07
-1.04266e-07
-9.53453e-08
-8.6788e-08
-7.85566e-08
-7.06634e-08
-6.3135e-08
-5.59804e-08
-4.91734e-08
-4.26539e-08
-3.63417e-08
-3.01554e-08
-2.40256e-08
-1.79068e-08
-1.1716e-08
-6.05715e-09
1.93974e-05
1.9393e-05
1.93813e-05
1.93618e-05
1.93331e-05
1.92924e-05
1.92358e-05
1.91576e-05
1.90506e-05
1.89047e-05
1.87066e-05
1.84389e-05
1.8079e-05
1.75976e-05
1.69579e-05
1.61142e-05
1.50112e-05
1.35843e-05
1.17611e-05
9.46621e-06
6.62863e-06
3.19508e-06
-8.52014e-07
-5.47158e-06
-1.05392e-05
-1.58271e-05
-2.09993e-05
-2.5634e-05
-2.9282e-05
-3.1559e-05
-3.22481e-05
-3.13715e-05
-2.91902e-05
-2.61233e-05
-2.26252e-05
-1.90785e-05
-1.57453e-05
-1.27708e-05
-1.02139e-05
-8.07833e-06
-6.33521e-06
-4.93845e-06
-3.83557e-06
-2.97486e-06
-2.30933e-06
-1.79842e-06
-1.40827e-06
-1.11139e-06
-8.85946e-07
-7.1481e-07
-5.84699e-07
-4.85381e-07
-4.09057e-07
-3.49885e-07
-3.03541e-07
-2.66827e-07
-2.37333e-07
-2.13207e-07
-1.93024e-07
-1.75734e-07
-1.60611e-07
-1.47177e-07
-1.35108e-07
-1.24147e-07
-1.14057e-07
-1.04622e-07
-9.56633e-08
-8.70742e-08
-7.88159e-08
-7.09003e-08
-6.33534e-08
-5.61837e-08
-4.9364e-08
-4.28328e-08
-3.65081e-08
-3.03075e-08
-2.41606e-08
-1.80219e-08
-1.18075e-08
-6.1209e-09
1.93943e-05
1.93897e-05
1.93775e-05
1.93572e-05
1.93274e-05
1.92853e-05
1.92268e-05
1.91464e-05
1.90366e-05
1.88873e-05
1.86854e-05
1.84132e-05
1.80481e-05
1.75611e-05
1.69154e-05
1.60656e-05
1.49568e-05
1.35251e-05
1.1699e-05
9.40411e-06
6.57104e-06
3.14801e-06
-8.81061e-07
-5.47405e-06
-1.05064e-05
-1.5752e-05
-2.08785e-05
-2.54698e-05
-2.90839e-05
-3.13435e-05
-3.2036e-05
-3.11832e-05
-2.90406e-05
-2.60192e-05
-2.25654e-05
-1.90566e-05
-1.57524e-05
-1.27983e-05
-1.02543e-05
-8.12576e-06
-6.38517e-06
-4.98781e-06
-3.88231e-06
-3.0178e-06
-2.3479e-06
-1.83246e-06
-1.43791e-06
-1.13693e-06
-9.07752e-07
-7.33295e-07
-6.00277e-07
-4.98446e-07
-4.19974e-07
-3.58978e-07
-3.11093e-07
-2.73083e-07
-2.42504e-07
-2.17473e-07
-1.96539e-07
-1.78629e-07
-1.62992e-07
-1.49132e-07
-1.36709e-07
-1.25457e-07
-1.15129e-07
-1.055e-07
-9.63873e-08
-8.76754e-08
-7.93188e-08
-7.13229e-08
-6.37093e-08
-5.64831e-08
-4.9615e-08
-4.30421e-08
-3.66813e-08
-3.04488e-08
-2.42734e-08
-1.81081e-08
-1.1868e-08
-6.15741e-09
1.93845e-05
1.93795e-05
1.93662e-05
1.93442e-05
1.9312e-05
1.92668e-05
1.92043e-05
1.9119e-05
1.90033e-05
1.88471e-05
1.86368e-05
1.83552e-05
1.79793e-05
1.74804e-05
1.6822e-05
1.59592e-05
1.48381e-05
1.33959e-05
1.15629e-05
9.2671e-06
6.44186e-06
3.03851e-06
-9.56099e-07
-5.49773e-06
-1.04617e-05
-1.56247e-05
-2.06615e-05
-2.51672e-05
-2.87139e-05
-3.09377e-05
-3.16342e-05
-3.08243e-05
-2.87536e-05
-2.58177e-05
-2.24477e-05
-1.90108e-05
-1.57622e-05
-1.28473e-05
-1.03284e-05
-8.21357e-06
-6.47816e-06
-5.07997e-06
-3.96972e-06
-3.09814e-06
-2.42005e-06
-1.89611e-06
-1.49326e-06
-1.18452e-06
-9.48295e-07
-7.67568e-07
-6.29067e-07
-5.22504e-07
-4.39994e-07
-3.75579e-07
-3.24816e-07
-2.84393e-07
-2.51799e-07
-2.25094e-07
-2.02778e-07
-1.83731e-07
-1.67161e-07
-1.52533e-07
-1.39477e-07
-1.27702e-07
-1.16946e-07
-1.0697e-07
-9.75788e-08
-8.86446e-08
-8.01092e-08
-7.19667e-08
-6.42295e-08
-5.6897e-08
-4.99366e-08
-4.32839e-08
-3.6855e-08
-3.05651e-08
-2.43416e-08
-1.81356e-08
-1.18621e-08
-6.13328e-09
1.93683e-05
1.93626e-05
1.93477e-05
1.93231e-05
1.92873e-05
1.92374e-05
1.9169e-05
1.90764e-05
1.89519e-05
1.87851e-05
1.85626e-05
1.82667e-05
1.78748e-05
1.73582e-05
1.6681e-05
1.5799e-05
1.46595e-05
1.32018e-05
1.13587e-05
9.06147e-06
6.24761e-06
2.87288e-06
-1.07166e-06
-5.53887e-06
-1.0404e-05
-1.5448e-05
-2.03558e-05
-2.47387e-05
-2.81886e-05
-3.03604e-05
-3.10612e-05
-3.0311e-05
-2.83412e-05
-2.55259e-05
-2.22747e-05
-1.89404e-05
-1.57718e-05
-1.29138e-05
-1.04317e-05
-8.33724e-06
-6.6099e-06
-5.21103e-06
-4.09434e-06
-3.21289e-06
-2.52321e-06
-1.98715e-06
-1.57245e-06
-1.25259e-06
-1.00625e-06
-8.16514e-07
-6.70131e-07
-5.56768e-07
-4.68458e-07
-3.99138e-07
-3.44253e-07
-3.00381e-07
-2.64914e-07
-2.35831e-07
-2.11558e-07
-1.90908e-07
-1.73029e-07
-1.57331e-07
-1.43397e-07
-1.30901e-07
-1.19557e-07
-1.09107e-07
-9.93387e-08
-9.01053e-08
-8.13312e-08
-7.29945e-08
-6.50944e-08
-5.7622e-08
-5.054e-08
-4.37824e-08
-3.72645e-08
-3.09006e-08
-2.46158e-08
-1.83581e-08
-1.20365e-08
-6.2531e-09
1.93462e-05
1.93396e-05
1.93226e-05
1.92946e-05
1.92541e-05
1.9198e-05
1.91219e-05
1.90198e-05
1.88837e-05
1.87033e-05
1.84647e-05
1.81504e-05
1.77378e-05
1.71984e-05
1.64969e-05
1.55903e-05
1.44276e-05
1.29502e-05
1.10945e-05
8.7961e-06
5.99746e-06
2.65995e-06
-1.2202e-06
-5.59244e-06
-1.03321e-05
-1.5226e-05
-1.99719e-05
-2.42012e-05
-2.75303e-05
-2.96372e-05
-3.03426e-05
-2.96653e-05
-2.78197e-05
-2.51535e-05
-2.20505e-05
-1.88452e-05
-1.57779e-05
-1.29929e-05
-1.05583e-05
-8.49089e-06
-6.77483e-06
-5.37594e-06
-4.25173e-06
-3.35824e-06
-2.65417e-06
-2.10293e-06
-1.67329e-06
-1.33937e-06
-1.08018e-06
-8.78987e-07
-7.22555e-07
-6.0051e-07
-5.04783e-07
-4.29186e-07
-3.6902e-07
-3.20726e-07
-2.81574e-07
-2.49436e-07
-2.22647e-07
-1.99935e-07
-1.8037e-07
-1.6329e-07
-1.48221e-07
-1.34794e-07
-1.22687e-07
-1.11619e-07
-1.01355e-07
-9.17268e-08
-8.26366e-08
-7.40419e-08
-6.59255e-08
-5.82674e-08
-5.10245e-08
-4.41283e-08
-3.74932e-08
-3.10323e-08
-2.46684e-08
-1.83471e-08
-1.1977e-08
-6.17393e-09
1.93187e-05
1.93112e-05
1.92916e-05
1.92594e-05
1.92132e-05
1.91498e-05
1.90643e-05
1.89508e-05
1.88008e-05
1.86039e-05
1.83462e-05
1.80098e-05
1.75725e-05
1.7006e-05
1.62758e-05
1.53402e-05
1.41502e-05
1.26502e-05
1.07806e-05
8.48179e-06
5.70242e-06
2.41015e-06
-1.39299e-06
-5.65281e-06
-1.02452e-05
-1.49642e-05
-1.95226e-05
-2.3575e-05
-2.67656e-05
-2.8798e-05
-2.95082e-05
-2.89132e-05
-2.72087e-05
-2.47129e-05
-2.17806e-05
-1.87252e-05
-1.5777e-05
-1.30787e-05
-1.07016e-05
-8.66748e-06
-6.96605e-06
-5.56831e-06
-4.43614e-06
-3.5291e-06
-2.80852e-06
-2.23967e-06
-1.79256e-06
-1.44212e-06
-1.16779e-06
-9.53058e-07
-7.84733e-07
-6.52394e-07
-5.47869e-07
-4.6482e-07
-3.98388e-07
-3.44852e-07
-3.01337e-07
-2.65587e-07
-2.35827e-07
-2.10686e-07
-1.89139e-07
-1.70442e-07
-1.54051e-07
-1.39541e-07
-1.26553e-07
-1.14773e-07
-1.0394e-07
-9.38615e-08
-8.44126e-08
-7.55274e-08
-6.71693e-08
-5.9305e-08
-5.1884e-08
-4.48345e-08
-3.80695e-08
-3.15006e-08
-2.50478e-08
-1.86521e-08
-1.22137e-08
-6.33399e-09
1.92868e-05
1.9278e-05
1.92554e-05
1.92185e-05
1.91659e-05
1.90939e-05
1.89979e-05
1.88712e-05
1.87055e-05
1.84898e-05
1.82103e-05
1.7849e-05
1.73837e-05
1.67867e-05
1.60244e-05
1.50566e-05
1.38366e-05
1.23122e-05
1.04281e-05
8.1305e-06
5.3745e-06
2.13465e-06
-1.58094e-06
-5.71453e-06
-1.01432e-05
-1.46693e-05
-1.90225e-05
-2.28826e-05
-2.59231e-05
-2.78749e-05
-2.85899e-05
-2.80829e-05
-2.65298e-05
-2.42183e-05
-2.1472e-05
-1.85817e-05
-1.57664e-05
-1.3166e-05
-1.08547e-05
-8.85968e-06
-7.17637e-06
-5.78138e-06
-4.64149e-06
-3.72015e-06
-2.98169e-06
-2.39349e-06
-1.92704e-06
-1.55819e-06
-1.26692e-06
-1.03698e-06
-8.55254e-07
-7.11291e-07
-5.96807e-07
-5.05309e-07
-4.31761e-07
-3.72264e-07
-3.23781e-07
-2.83913e-07
-2.5076e-07
-2.22837e-07
-1.99016e-07
-1.7846e-07
-1.60545e-07
-1.44786e-07
-1.30776e-07
-1.18167e-07
-1.06667e-07
-9.60558e-08
-8.618e-08
-7.69476e-08
-6.83006e-08
-6.01905e-08
-5.25579e-08
-4.53266e-08
-3.84075e-08
-3.17102e-08
-2.51518e-08
-1.867e-08
-1.21642e-08
-6.25082e-09
1.92511e-05
1.92411e-05
1.92152e-05
1.91731e-05
1.91133e-05
1.9032e-05
1.89242e-05
1.87832e-05
1.86002e-05
1.83641e-05
1.80608e-05
1.76724e-05
1.71768e-05
1.6547e-05
1.57502e-05
1.47481e-05
1.34966e-05
1.1947e-05
1.00489e-05
7.75461e-06
5.02593e-06
1.84454e-06
-1.77538e-06
-5.77285e-06
-1.00269e-05
-1.4349e-05
-1.8487e-05
-2.21466e-05
-2.50318e-05
-2.69002e-05
-2.76195e-05
-2.72025e-05
-2.58053e-05
-2.36845e-05
-2.11327e-05
-1.84172e-05
-1.5744e-05
-1.32498e-05
-1.10111e-05
-9.06014e-06
-7.39827e-06
-6.00795e-06
-4.86109e-06
-3.92538e-06
-3.16835e-06
-2.55977e-06
-2.07274e-06
-1.68416e-06
-1.37466e-06
-1.12828e-06
-9.3204e-07
-7.75456e-07
-6.50139e-07
-5.49441e-07
-4.6814e-07
-4.0215e-07
-3.48257e-07
-3.03907e-07
-2.67063e-07
-2.36119e-07
-2.09832e-07
-1.87265e-07
-1.67709e-07
-1.50609e-07
-1.35506e-07
-1.22014e-07
-1.09806e-07
-9.86308e-08
-8.83055e-08
-7.87104e-08
-6.97646e-08
-6.14028e-08
-5.35552e-08
-4.61399e-08
-3.9065e-08
-3.22373e-08
-2.55708e-08
-1.8998e-08
-1.24098e-08
-6.40908e-09
1.92127e-05
1.92013e-05
1.91719e-05
1.91243e-05
1.90568e-05
1.89657e-05
1.88455e-05
1.86892e-05
1.84879e-05
1.82302e-05
1.79018e-05
1.74848e-05
1.69576e-05
1.62935e-05
1.54611e-05
1.44238e-05
1.31402e-05
1.15658e-05
9.655e-06
7.36626e-06
4.66842e-06
1.55015e-06
-1.96861e-06
-5.82415e-06
-9.89805e-06
-1.40118e-05
-1.79317e-05
-2.13897e-05
-2.41191e-05
-2.59042e-05
-2.66273e-05
-2.62993e-05
-2.50569e-05
-2.31272e-05
-2.0772e-05
-1.82351e-05
-1.5709e-05
-1.33263e-05
-1.11651e-05
-9.26212e-06
-7.62472e-06
-6.24112e-06
-5.08852e-06
-4.13896e-06
-3.36339e-06
-2.73407e-06
-2.22589e-06
-1.81688e-06
-1.48839e-06
-1.22482e-06
-1.01335e-06
-8.43486e-07
-7.06744e-07
-5.96322e-07
-5.06814e-07
-4.3394e-07
-3.74304e-07
-3.25189e-07
-2.84414e-07
-2.50244e-07
-2.21319e-07
-1.96598e-07
-1.75281e-07
-1.56739e-07
-1.40458e-07
-1.26007e-07
-1.13026e-07