/*--------------------------------*- C++ -*----------------------------------*\
| =========                 |                                                 |
| \\      /  F ield         | OpenFOAM: The Open Source CFD Toolbox           |
|  \\    /   O peration     | Version:  2512                                  |
|   \\  /    A nd           | Website:  www.openfoam.com                      |
|    \\/     M anipulation  |                                                 |
\*---------------------------------------------------------------------------*/
FoamFile
{
    version     2.0;
    format      ascii;
    arch        "LSB;label=32;scalar=64";
    class       volScalarField;
    location    "100";
    object      p;
}
// * * * * * * * * * * * * * * * * * * * * * * * * * * * * * * * * * * * * * //

dimensions      [0 2 -2 0 0 0 0];

internalField   nonuniform List<scalar> 
220594
(
5.12773e-05
5.12036e-05
5.10169e-05
5.07161e-05
5.02956e-05
4.97374e-05
4.90168e-05
4.81047e-05
4.69669e-05
4.55632e-05
4.38472e-05
4.17666e-05
3.92636e-05
3.62762e-05
3.27407e-05
2.85952e-05
2.37841e-05
1.82644e-05
1.20132e-05
5.0389e-06
-2.60852e-06
-1.08277e-05
-1.94586e-05
-2.82802e-05
-3.70119e-05
-4.53275e-05
-5.28741e-05
-5.93052e-05
-6.43172e-05
-6.76872e-05
-6.93022e-05
-6.91745e-05
-6.74384e-05
-6.43282e-05
-6.01439e-05
-5.52115e-05
-4.98472e-05
-4.43307e-05
-3.88903e-05
-3.3698e-05
-2.88716e-05
-2.44819e-05
-2.05617e-05
-1.71141e-05
-1.41217e-05
-1.15536e-05
-9.37086e-06
-7.53152e-06
-5.99337e-06
-4.71613e-06
-3.66273e-06
-2.79992e-06
-2.09856e-06
-1.53356e-06
-1.08354e-06
-7.30383e-07
-4.58693e-07
-2.55289e-07
-1.08795e-07
-9.31537e-09
5.17937e-08
8.2133e-08
8.84276e-08
7.66957e-08
5.23614e-08
2.03315e-08
-1.50158e-08
-4.98771e-08
-8.11229e-08
-1.06375e-07
-1.24081e-07
-1.3353e-07
-1.34836e-07
-1.28849e-07
-1.17031e-07
-1.0127e-07
-8.36191e-08
-6.60419e-08
-4.96481e-08
-4.22329e-08
5.12988e-05
5.12258e-05
5.10409e-05
5.0743e-05
5.03264e-05
4.97732e-05
4.9059e-05
4.81545e-05
4.70256e-05
4.56323e-05
4.39281e-05
4.18604e-05
3.93712e-05
3.6398e-05
3.28762e-05
2.87427e-05
2.39406e-05
1.84249e-05
1.21708e-05
5.18439e-06
-2.48643e-06
-1.07419e-05
-1.9423e-05
-2.83072e-05
-3.71117e-05
-4.55044e-05
-5.31261e-05
-5.96221e-05
-6.46812e-05
-6.80742e-05
-6.96853e-05
-6.95277e-05
-6.77405e-05
-6.45653e-05
-6.03105e-05
-5.53095e-05
-4.98841e-05
-4.43175e-05
-3.8839e-05
-3.36201e-05
-2.87775e-05
-2.43801e-05
-2.04587e-05
-1.70146e-05
-1.40288e-05
-1.1469e-05
-9.29551e-06
-7.46556e-06
-5.9365e-06
-4.66777e-06
-3.62209e-06
-2.76613e-06
-2.07075e-06
-1.51088e-06
-1.06519e-06
-7.15654e-07
-4.46939e-07
-2.45925e-07
-1.01293e-07
-3.19754e-09
5.69477e-08
8.66801e-08
9.26484e-08
8.07967e-08
5.64708e-08
2.45095e-08
-1.07733e-08
-4.56239e-08
-7.69542e-08
-1.0241e-07
-1.20451e-07
-1.30362e-07
-1.32236e-07
-1.26891e-07
-1.15745e-07
-1.00634e-07
-8.35531e-08
-6.63981e-08
-5.02102e-08
-4.2241e-08
5.13412e-05
5.12696e-05
5.10883e-05
5.07961e-05
5.03873e-05
4.98441e-05
4.91423e-05
4.82528e-05
4.71418e-05
4.5769e-05
4.4088e-05
4.20459e-05
3.9584e-05
3.66389e-05
3.31444e-05
2.90351e-05
2.42511e-05
1.87437e-05
1.24843e-05
5.47439e-06
-2.24238e-06
-1.05697e-05
-1.93498e-05
-2.83586e-05
-3.73074e-05
-4.58541e-05
-5.36258e-05
-6.02519e-05
-6.54053e-05
-6.88447e-05
-7.04483e-05
-7.02311e-05
-6.83417e-05
-6.50368e-05
-6.06412e-05
-5.55035e-05
-4.99567e-05
-4.42903e-05
-3.87361e-05
-3.34648e-05
-2.85902e-05
-2.41778e-05
-2.02541e-05
-1.6817e-05
-1.38444e-05
-1.13012e-05
-9.14603e-06
-7.33468e-06
-5.8236e-06
-4.57166e-06
-3.54123e-06
-2.69882e-06
-2.01525e-06
-1.46551e-06
-1.02844e-06
-6.8613e-07
-4.23395e-07
-2.27233e-07
-8.64205e-08
8.79269e-09
6.68858e-08
9.52724e-08
1.00462e-07
8.82521e-08
6.38455e-08
3.19497e-08
-3.23735e-09
-3.80569e-08
-6.94959e-08
-9.52493e-08
-1.13801e-07
-1.24432e-07
-1.27209e-07
-1.22898e-07
-1.12844e-07
-9.87917e-08
-8.26386e-08
-6.61757e-08
-5.03372e-08
-4.2105e-08
5.14036e-05
5.13341e-05
5.11581e-05
5.08743e-05
5.04769e-05
4.99484e-05
4.92649e-05
4.83976e-05
4.73127e-05
4.59702e-05
4.43236e-05
4.23194e-05
3.98981e-05
3.69946e-05
3.35408e-05
2.94677e-05
2.47111e-05
1.92171e-05
1.29507e-05
5.90702e-06
-1.87698e-06
-1.03101e-05
-1.92368e-05
-2.84305e-05
-3.75942e-05
-4.63712e-05
-5.43677e-05
-6.11891e-05
-6.64845e-05
-6.99937e-05
-7.15857e-05
-7.12786e-05
-6.92355e-05
-6.57356e-05
-6.11291e-05
-5.57873e-05
-5.00598e-05
-4.42457e-05
-3.85798e-05
-3.32316e-05
-2.83105e-05
-2.38763e-05
-1.995e-05
-1.65239e-05
-1.35711e-05
-1.10529e-05
-8.925e-06
-7.14127e-06
-5.65685e-06
-4.42973e-06
-3.42182e-06
-2.5994e-06
-1.93325e-06
-1.39849e-06
-9.74154e-07
-6.42561e-07
-3.88731e-07
-1.99821e-07
-6.47469e-08
2.61106e-08
8.10741e-08
1.07378e-07
1.11324e-07
9.84998e-08
7.38969e-08
4.20375e-08
6.95392e-09
-2.78282e-08
-5.94021e-08
-8.55337e-08
-1.04745e-07
-1.1632e-07
-1.20293e-07
-1.17364e-07
-1.08785e-07
-9.61816e-08
-8.13215e-08
-6.58646e-08
-5.06183e-08
-4.23663e-08
5.14844e-05
5.14176e-05
5.12485e-05
5.09756e-05
5.0593e-05
5.00837e-05
4.94239e-05
4.85854e-05
4.75346e-05
4.62316e-05
4.46297e-05
4.26751e-05
4.03069e-05
3.74584e-05
3.40581e-05
3.00333e-05
2.53138e-05
1.98386e-05
1.35649e-05
6.47863e-06
-1.3918e-06
-9.96225e-06
-1.90804e-05
-2.85169e-05
-3.79642e-05
-4.7046e-05
-5.53415e-05
-6.24232e-05
-6.79083e-05
-7.15108e-05
-7.30871e-05
-7.26594e-05
-7.04106e-05
-6.66507e-05
-6.17641e-05
-5.61524e-05
-5.01871e-05
-4.41796e-05
-3.83685e-05
-3.29208e-05
-2.79403e-05
-2.34792e-05
-1.95507e-05
-1.61399e-05
-1.32138e-05
-1.07287e-05
-8.63681e-06
-6.88938e-06
-5.43985e-06
-4.24517e-06
-3.26662e-06
-2.4702e-06
-1.82669e-06
-1.31139e-06
-9.03606e-07
-5.85956e-07
-3.43722e-07
-1.64267e-07
-3.66772e-08
4.84948e-08
9.93731e-08
1.22953e-07
1.25268e-07
1.11627e-07
8.6757e-08
5.49418e-08
2.001e-08
-1.46801e-08
-4.63513e-08
-7.28603e-08
-9.27793e-08
-1.054e-07
-1.10724e-07
-1.09378e-07
-1.02506e-07
-9.1596e-08
-7.82693e-08
-6.40437e-08
-4.96223e-08
-4.17409e-08
5.15817e-05
5.15182e-05
5.13573e-05
5.10975e-05
5.07329e-05
5.02466e-05
4.96156e-05
4.8812e-05
4.78025e-05
4.65474e-05
4.49999e-05
4.31056e-05
4.08024e-05
3.80212e-05
3.46871e-05
3.07222e-05
2.60495e-05
2.05997e-05
1.43195e-05
7.18405e-06
-7.89297e-07
-9.5254e-06
-1.88764e-05
-2.86103e-05
-3.84068e-05
-4.78662e-05
-5.65333e-05
-6.39401e-05
-6.96623e-05
-7.33816e-05
-7.4938e-05
-7.43587e-05
-7.18522e-05
-6.77677e-05
-6.2533e-05
-5.65878e-05
-5.03306e-05
-4.40872e-05
-3.81004e-05
-3.25336e-05
-2.74829e-05
-2.29912e-05
-1.90619e-05
-1.56712e-05
-1.27786e-05
-1.03347e-05
-8.28714e-06
-6.58418e-06
-5.17726e-06
-4.02206e-06
-3.07914e-06
-2.3142e-06
-1.69805e-06
-1.20624e-06
-8.18424e-07
-5.17609e-07
-2.89391e-07
-1.21381e-07
-2.86846e-09
7.53903e-08
1.21273e-07
1.41481e-07
1.41717e-07
1.26957e-07
1.01609e-07
6.96803e-08
3.47654e-08
3.53175e-11
-3.1877e-08
-5.89289e-08
-7.97487e-08
-9.36382e-08
-1.00564e-07
-1.01073e-07
-9.61897e-08
-8.7257e-08
-7.57355e-08
-6.29895e-08
-4.95848e-08
-4.209e-08
5.1693e-05
5.16333e-05
5.14819e-05
5.12372e-05
5.08931e-05
5.04335e-05
4.98355e-05
4.9072e-05
4.81101e-05
4.69104e-05
4.5426e-05
4.36018e-05
4.13742e-05
3.86717e-05
3.54155e-05
3.15219e-05
2.6906e-05
2.14885e-05
1.52044e-05
8.01547e-06
-7.40656e-08
-9.00018e-06
-1.86211e-05
-2.87024e-05
-3.89099e-05
-4.88161e-05
-5.79254e-05
-6.57204e-05
-7.17268e-05
-7.5586e-05
-7.7118e-05
-7.63561e-05
-7.354e-05
-6.90675e-05
-6.3419e-05
-5.708e-05
-5.04808e-05
-4.39635e-05
-3.77744e-05
-3.2072e-05
-2.6943e-05
-2.24187e-05
-1.84909e-05
-1.51257e-05
-1.22737e-05
-9.87864e-06
-7.88317e-06
-6.23218e-06
-4.87483e-06
-3.76537e-06
-2.86361e-06
-2.13492e-06
-1.55019e-06
-1.08528e-06
-7.20311e-07
-4.38743e-07
-2.26545e-07
-7.1608e-08
3.65476e-08
1.06928e-07
1.47124e-07
1.63488e-07
1.61341e-07
1.45265e-07
1.19314e-07
8.71823e-08
5.22132e-08
1.73776e-08
-1.48426e-08
-4.25092e-08
-6.43088e-08
-7.95541e-08
-8.81742e-08
-9.0632e-08
-8.78298e-08
-8.09615e-08
-7.1329e-08
-6.0151e-08
-4.7898e-08
-4.11231e-08
5.18157e-05
5.17601e-05
5.16192e-05
5.13912e-05
5.10699e-05
5.06397e-05
5.00784e-05
4.93594e-05
4.84505e-05
4.73125e-05
4.58984e-05
4.41526e-05
4.20101e-05
3.93966e-05
3.6229e-05
3.24172e-05
2.78679e-05
2.24904e-05
1.62063e-05
8.96224e-06
7.46951e-07
-8.38885e-06
-1.83113e-05
-2.87843e-05
-3.94588e-05
-4.98763e-05
-5.94947e-05
-6.77389e-05
-7.40752e-05
-7.80969e-05
-7.95998e-05
-7.86244e-05
-7.54482e-05
-7.05264e-05
-6.44021e-05
-5.76139e-05
-5.06279e-05
-4.38037e-05
-3.73904e-05
-3.15399e-05
-2.63272e-05
-2.17702e-05
-1.78475e-05
-1.45134e-05
-1.17087e-05
-9.36966e-06
-7.43336e-06
-5.84098e-06
-4.53925e-06
-3.48095e-06
-2.62504e-06
-1.9366e-06
-1.38666e-06
-9.51489e-07
-6.11772e-07
-3.5149e-07
-1.5704e-07
-1.66226e-08
7.99959e-08
1.4156e-07
1.75336e-07
1.87287e-07
1.82297e-07
1.6452e-07
1.37619e-07
1.04962e-07
6.96318e-08
3.43975e-08
1.59329e-09
-2.69446e-08
-4.99578e-08
-6.67665e-08
-7.72586e-08
-8.18106e-08
-8.12012e-08
-7.64769e-08
-6.87858e-08
-5.92026e-08
-4.80638e-08
-4.17425e-08
5.19467e-05
5.18955e-05
5.17659e-05
5.15558e-05
5.1259e-05
5.08603e-05
5.03384e-05
4.96674e-05
4.88155e-05
4.77441e-05
4.64063e-05
4.47457e-05
4.2696e-05
4.01801e-05
3.71104e-05
3.33901e-05
2.89166e-05
2.35871e-05
1.73084e-05
1.00101e-05
1.66352e-06
-7.69631e-06
-1.79454e-05
-2.88473e-05
-4.00377e-05
-5.10244e-05
-6.12133e-05
-6.99635e-05
-7.6673e-05
-8.08788e-05
-8.23479e-05
-8.11294e-05
-7.75446e-05
-7.21162e-05
-6.54593e-05
-5.81726e-05
-5.07617e-05
-4.3604e-05
-3.69501e-05
-3.09431e-05
-2.56444e-05
-2.10565e-05
-1.71434e-05
-1.38462e-05
-1.10952e-05
-8.81854e-06
-6.94745e-06
-5.41923e-06
-4.17808e-06
-3.17522e-06
-2.36879e-06
-1.72363e-06
-1.21094e-06
-8.07526e-07
-4.94717e-07
-2.57105e-07
-8.15501e-08
4.34204e-08
1.2778e-07
1.79992e-07
2.06969e-07
2.14238e-07
2.06209e-07
1.86572e-07
1.58577e-07
1.25258e-07
8.94346e-08
5.36815e-08
2.01896e-08
-9.3027e-09
-3.35899e-08
-5.19989e-08
-6.43754e-08
-7.10093e-08
-7.25581e-08
-6.99279e-08
-6.41256e-08
-5.61048e-08
-4.61366e-08
-4.06286e-08
5.20827e-05
5.20362e-05
5.19183e-05
5.17268e-05
5.14556e-05
5.10899e-05
5.06092e-05
4.99884e-05
4.91965e-05
4.81952e-05
4.69377e-05
4.53674e-05
4.34163e-05
4.10047e-05
3.80403e-05
3.44197e-05
3.00303e-05
2.47568e-05
1.84899e-05
1.11409e-05
2.66151e-06
-6.93082e-06
-1.75242e-05
-2.88836e-05
-4.06295e-05
-5.22345e-05
-6.30474e-05
-7.23545e-05
-7.94765e-05
-8.38861e-05
-8.53171e-05
-8.38278e-05
-7.97903e-05
-7.38038e-05
-6.65649e-05
-5.8739e-05
-5.08732e-05
-4.33628e-05
-3.64577e-05
-3.02904e-05
-2.49063e-05
-2.0291e-05
-1.63926e-05
-1.31381e-05
-1.04466e-05
-8.23768e-06
-6.43669e-06
-4.97693e-06
-3.80009e-06
-2.85586e-06
-2.10157e-06
-1.50182e-06
-1.02812e-06
-6.57887e-07
-3.73197e-07
-1.59308e-07
-3.5724e-09
1.05154e-07
1.76586e-07
2.18898e-07
2.38621e-07
2.40814e-07
2.29383e-07
2.07532e-07
1.78095e-07
1.43775e-07
1.07146e-07
7.06012e-08
3.61991e-08
5.58686e-09
-2.00822e-08
-4.01435e-08
-5.44044e-08
-6.30735e-08
-6.6694e-08
-6.60417e-08
-6.19954e-08
-5.53956e-08
-4.64133e-08
-4.13354e-08
5.22204e-05
5.21786e-05
5.20727e-05
5.19002e-05
5.16549e-05
5.13228e-05
5.08842e-05
5.03148e-05
4.95841e-05
4.86547e-05
4.74799e-05
4.60027e-05
4.41538e-05
4.18509e-05
3.89973e-05
3.54825e-05
3.11843e-05
2.5974e-05
1.97259e-05
1.23317e-05
3.72225e-06
-6.10485e-06
-1.7052e-05
-2.88872e-05
-4.12171e-05
-5.34776e-05
-6.49576e-05
-7.4864e-05
-8.2432e-05
-8.70623e-05
-8.84514e-05
-8.66675e-05
-8.21392e-05
-7.55517e-05
-6.76915e-05
-5.92957e-05
-5.0955e-05
-4.30809e-05
-3.59207e-05
-2.95938e-05
-2.41277e-05
-1.94901e-05
-1.56117e-05
-1.24051e-05
-9.77765e-06
-7.64045e-06
-5.91283e-06
-4.52422e-06
-3.41385e-06
-2.52993e-06
-1.82901e-06
-1.27553e-06
-8.41377e-07
-5.04701e-07
-2.48401e-07
-5.84543e-08
7.72862e-08
1.69647e-07
2.28092e-07
2.60497e-07
2.72987e-07
2.70121e-07
2.5527e-07
2.31139e-07
2.00151e-07
1.64695e-07
1.27124e-07
8.96721e-08
5.42823e-08
2.25165e-08
-4.52544e-09
-2.61945e-08
-4.22693e-08
-5.28873e-08
-5.84895e-08
-5.9735e-08
-5.73915e-08
-5.22126e-08
-4.43424e-08
-4.01636e-08
5.23563e-05
5.23192e-05
5.22252e-05
5.20715e-05
5.1852e-05
5.15533e-05
5.11566e-05
5.06382e-05
4.99688e-05
4.91113e-05
4.80195e-05
4.6636e-05
4.48905e-05
4.26982e-05
3.9958e-05
3.65527e-05
3.23506e-05
2.72097e-05
2.09874e-05
1.35553e-05
4.82224e-06
-5.23562e-06
-1.65369e-05
-2.88548e-05
-4.17836e-05
-5.47229e-05
-6.68991e-05
-7.74354e-05
-8.54747e-05
-9.03391e-05
-9.16832e-05
-8.9586e-05
-8.4538e-05
-7.73184e-05
-6.88104e-05
-5.98269e-05
-5.10023e-05
-4.27626e-05
-3.53501e-05
-2.88686e-05
-2.33267e-05
-1.86725e-05
-1.48194e-05
-1.1665e-05
-9.105e-06
-7.04193e-06
-5.38939e-06
-4.07309e-06
-3.02995e-06
-2.20678e-06
-1.5594e-06
-1.05217e-06
-6.57427e-07
-3.54153e-07
-1.2614e-07
3.98929e-08
1.55613e-07
2.31565e-07
2.76988e-07
2.99466e-07
3.04696e-07
2.96712e-07
2.78327e-07
2.51743e-07
2.18987e-07
1.82167e-07
1.43448e-07
1.0494e-07
6.84925e-08
3.55902e-08
7.27681e-09
-1.58266e-08
-3.34866e-08
-4.57888e-08
-5.30912e-08
-5.59552e-08
-5.5055e-08
-5.10681e-08
-4.40861e-08
-4.04758e-08
5.2487e-05
5.24545e-05
5.23719e-05
5.22364e-05
5.20419e-05
5.17756e-05
5.14194e-05
5.09508e-05
5.03409e-05
4.95535e-05
4.85428e-05
4.72512e-05
4.56076e-05
4.35247e-05
4.08977e-05
3.76029e-05
3.34993e-05
2.8432e-05
2.22417e-05
1.47801e-05
5.93306e-06
-4.34538e-06
-1.59917e-05
-2.87867e-05
-4.23138e-05
-5.59378e-05
-6.88224e-05
-8.0004e-05
-8.85292e-05
-9.36359e-05
-9.49333e-05
-9.25115e-05
-8.69269e-05
-7.90588e-05
-6.98924e-05
-6.03183e-05
-5.10135e-05
-4.24162e-05
-3.47607e-05
-2.81338e-05
-2.25239e-05
-1.78595e-05
-1.40362e-05
-1.09367e-05
-8.4455e-06
-6.45681e-06
-4.87885e-06
-3.6339e-06
-2.65677e-06
-1.89295e-06
-1.29759e-06
-8.35066e-07
-4.78245e-07
-2.07025e-07
-6.15404e-09
1.36907e-07
2.3338e-07
2.9358e-07
3.26563e-07
3.39626e-07
3.3803e-07
3.25252e-07
3.03529e-07
2.74558e-07
2.39988e-07
2.01685e-07
1.61672e-07
1.21973e-07
8.43726e-08
5.02958e-08
2.07286e-08
-3.74727e-09
-2.29051e-08
-3.68005e-08
-4.57303e-08
-5.01785e-08
-5.07444e-08
-4.80501e-08
-4.21789e-08
-3.9578e-08
5.26093e-05
5.2581e-05
5.25091e-05
5.23908e-05
5.22198e-05
5.1984e-05
5.16661e-05
5.12443e-05
5.06907e-05
4.99698e-05
4.90362e-05
4.78323e-05
4.62862e-05
4.43086e-05
4.17912e-05
3.86045e-05
3.45985e-05
2.96066e-05
2.34532e-05
1.59704e-05
7.02183e-06
-3.46128e-06
-1.54343e-05
-2.8687e-05
-4.27947e-05
-5.70896e-05
-7.06741e-05
-8.24983e-05
-9.151e-05
-9.68606e-05
-9.81113e-05
-9.53629e-05
-8.92403e-05
-8.0726e-05
-7.09095e-05
-6.07587e-05
-5.09912e-05
-4.20538e-05
-3.41713e-05
-2.74117e-05
-2.17433e-05
-1.70749e-05
-1.32846e-05
-1.02412e-05
-7.81811e-06
-5.90206e-06
-4.39629e-06
-3.22004e-06
-2.30622e-06
-1.59911e-06
-1.05326e-06
-6.3307e-07
-3.12046e-07
-7.10595e-08
1.04158e-07
2.25427e-07
3.03588e-07
3.48802e-07
3.7e-07
3.74223e-07
3.6629e-07
3.49109e-07
3.24323e-07
2.9313e-07
2.56822e-07
2.17059e-07
1.75768e-07
1.3493e-07
9.6298e-08
6.1252e-08
3.07212e-08
5.23453e-09
-1.50107e-08
-3.00675e-08
-4.01993e-08
-4.58378e-08
-4.75285e-08
-4.58534e-08
-4.08903e-08
-3.91679e-08
5.27199e-05
5.26955e-05
5.26335e-05
5.25307e-05
5.23812e-05
5.21731e-05
5.18902e-05
5.15113e-05
5.10093e-05
5.03494e-05
4.94866e-05
4.83636e-05
4.69077e-05
4.50281e-05
4.26133e-05
3.95285e-05
3.56162e-05
3.06981e-05
2.45844e-05
1.70883e-05
8.05227e-06
-2.61455e-06
-1.48867e-05
-2.85641e-05
-4.32164e-05
-5.81465e-05
-7.23994e-05
-8.48416e-05
-9.43244e-05
-9.99122e-05
-0.000101118
-9.80525e-05
-9.14089e-05
-8.22724e-05
-7.18355e-05
-6.11404e-05
-5.09415e-05
-4.16915e-05
-3.36035e-05
-2.67269e-05
-2.10099e-05
-1.63425e-05
-1.25867e-05
-9.59789e-06
-7.23966e-06
-5.3918e-06
-3.95324e-06
-2.84064e-06
-1.98524e-06
-1.33023e-06
-8.29632e-07
-4.47905e-07
-1.59249e-07
5.44511e-08
2.06473e-07
3.07957e-07
3.69438e-07
4.01002e-07
4.11524e-07
4.07828e-07
3.94306e-07
3.73292e-07
3.45839e-07
3.12647e-07
2.74679e-07
2.33425e-07
1.90758e-07
1.48662e-07
1.08894e-07
7.28103e-08
4.12921e-08
1.48095e-08
-6.48668e-09
-2.26694e-08
-3.39926e-08
-4.08578e-08
-4.37735e-08
-4.32929e-08
-3.94858e-08
-3.88795e-08
5.28161e-05
5.27951e-05
5.27416e-05
5.26525e-05
5.25218e-05
5.23381e-05
5.20859e-05
5.17446e-05
5.12881e-05
5.0682e-05
4.98818e-05
4.88305e-05
4.74548e-05
4.56627e-05
4.33399e-05
4.03474e-05
3.65205e-05
3.16716e-05
2.55974e-05
1.80946e-05
8.98624e-06
-1.83917e-06
-1.43744e-05
-2.84302e-05
-4.35727e-05
-5.90795e-05
-7.39439e-05
-8.69556e-05
-9.6875e-05
-0.000102684
-0.000103849
-0.000100489
-9.33621e-05
-8.36518e-05
-7.26472e-05
-6.14594e-05
-5.08744e-05
-4.13485e-05
-3.30819e-05
-2.61059e-05
-2.03503e-05
-1.56879e-05
-1.19661e-05
-9.0283e-06
-6.7293e-06
-4.94302e-06
-3.56479e-06
-2.50909e-06
-1.70579e-06
-1.09711e-06
-6.36554e-07
-2.88691e-07
-2.84039e-08
1.61411e-07
2.93081e-07
3.77127e-07
4.23858e-07
4.43373e-07
4.44558e-07
4.34074e-07
4.1592e-07
3.91877e-07
3.62417e-07
3.27764e-07
2.88566e-07
2.46174e-07
2.0244e-07
1.59381e-07
1.18789e-07
8.20159e-08
4.99018e-08
2.28537e-08
9.6133e-10
-1.58898e-08
-2.79681e-08
-3.56669e-08
-3.94771e-08
-3.99413e-08
-3.71604e-08
-3.77972e-08
5.28954e-05
5.28772e-05
5.28309e-05
5.27532e-05
5.2638e-05
5.24747e-05
5.2248e-05
5.19382e-05
5.15196e-05
5.09585e-05
5.02109e-05
4.92197e-05
4.79116e-05
4.61935e-05
4.39489e-05
4.10352e-05
3.72822e-05
3.24939e-05
2.64561e-05
1.89514e-05
9.78591e-06
-1.16976e-06
-1.39248e-05
-2.83003e-05
-4.38606e-05
-5.98628e-05
-7.52563e-05
-8.8764e-05
-9.90659e-05
-0.00010507
-0.0001062
-0.000102582
-9.50314e-05
-8.48209e-05
-7.33251e-05
-6.17148e-05
-5.08025e-05
-4.10451e-05
-3.26307e-05
-2.55744e-05
-1.97894e-05
-1.5134e-05
-1.14429e-05
-8.54959e-06
-6.30136e-06
-4.56737e-06
-3.24007e-06
-2.2323e-06
-1.47278e-06
-9.02915e-07
-4.75756e-07
-1.55966e-07
8.09224e-08
2.51067e-07
3.65917e-07
4.35458e-07
4.69847e-07
4.79264e-07
4.72674e-07
4.56631e-07
4.34795e-07
4.08443e-07
3.77509e-07
3.41768e-07
3.01586e-07
2.58193e-07
2.13447e-07
1.69425e-07
1.27975e-07
9.0467e-08
5.7714e-08
3.00649e-08
7.5446e-09
-1.00139e-08
-2.29073e-08
-3.15344e-08
-3.63773e-08
-3.79658e-08
-3.63802e-08
-3.81771e-08
5.29557e-05
5.29397e-05
5.28989e-05
5.28299e-05
5.27269e-05
5.25792e-05
5.23723e-05
5.20868e-05
5.16975e-05
5.11713e-05
5.04644e-05
4.95201e-05
4.82647e-05
4.66044e-05
4.44211e-05
4.15696e-05
3.78751e-05
3.31357e-05
2.71282e-05
1.96241e-05
1.04164e-05
-6.38994e-07
-1.35646e-05
-2.81904e-05
-4.40802e-05
-6.04756e-05
-7.62916e-05
-9.01974e-05
-0.000100808
-0.000106971
-0.000108073
-0.000104246
-9.63546e-05
-8.5742e-05
-7.38539e-05
-6.19089e-05
-5.07395e-05
-4.08022e-05
-3.22742e-05
-2.51572e-05
-1.93513e-05
-1.47032e-05
-1.10375e-05
-8.17978e-06
-5.97178e-06
-4.2789e-06
-2.9915e-06
-2.02122e-06
-1.29593e-06
-7.56353e-07
-3.55135e-07
-5.70101e-08
1.61937e-07
3.17048e-07
4.19026e-07
4.77421e-07
5.02308e-07
5.0399e-07
4.91556e-07
4.71512e-07
4.47251e-07
4.19619e-07
3.88076e-07
3.51999e-07
3.115e-07
2.67707e-07
2.2249e-07
1.77995e-07
1.36134e-07
9.83094e-08
6.53161e-08
3.74523e-08
1.46784e-08
-3.23058e-09
-1.66088e-08
-2.58707e-08
-3.14998e-08
-3.40279e-08
-3.35735e-08
-3.68113e-08
5.29955e-05
5.29809e-05
5.29439e-05
5.28808e-05
5.27859e-05
5.26488e-05
5.24553e-05
5.21863e-05
5.18169e-05
5.13144e-05
5.06353e-05
4.97228e-05
4.85033e-05
4.68825e-05
4.47413e-05
4.19325e-05
3.82785e-05
3.3573e-05
2.75869e-05
2.00841e-05
1.08483e-05
-2.74764e-07
-1.33171e-05
-2.81154e-05
-4.42333e-05
-6.09022e-05
-7.70132e-05
-9.11983e-05
-0.000102026
-0.000108301
-0.000109384
-0.000105411
-9.72791e-05
-8.63845e-05
-7.42223e-05
-6.20448e-05
-5.06981e-05
-4.06374e-05
-3.20321e-05
-2.4874e-05
-1.90545e-05
-1.44118e-05
-1.07639e-05
-7.93074e-06
-5.75023e-06
-4.08533e-06
-2.82506e-06
-1.88027e-06
-1.17829e-06
-6.59324e-07
-2.75681e-07
7.87165e-09
2.1484e-07
3.59948e-07
4.53332e-07
5.04228e-07
5.22679e-07
5.19133e-07
5.02821e-07
4.80257e-07
4.54652e-07
4.26525e-07
3.94963e-07
3.5902e-07
3.18595e-07
2.74732e-07
2.29314e-07
1.84551e-07
1.42423e-07
1.04368e-07
7.11761e-08
4.31072e-08
2.00647e-08
1.77041e-09
-1.21478e-08
-2.21211e-08
-2.8633e-08
-3.22037e-08
-3.29182e-08
-3.73085e-08
5.30136e-05
5.29998e-05
5.29645e-05
5.29044e-05
5.28135e-05
5.26817e-05
5.24947e-05
5.22339e-05
5.18744e-05
5.13836e-05
5.07183e-05
4.98217e-05
4.86202e-05
4.70191e-05
4.48989e-05
4.21114e-05
3.84777e-05
3.3789e-05
2.78135e-05
2.0311e-05
1.10605e-05
-9.74375e-08
-1.31998e-05
-2.80868e-05
-4.43221e-05
-6.1132e-05
-7.73955e-05
-9.17252e-05
-0.000102666
-0.000108999
-0.000110072
-0.000106023
-9.77672e-05
-8.67266e-05
-7.44231e-05
-6.21261e-05
-5.06884e-05
-4.05645e-05
-3.19195e-05
-2.47402e-05
-1.89133e-05
-1.42731e-05
-1.06337e-05
-7.81267e-06
-5.64565e-06
-3.99449e-06
-2.74758e-06
-1.81544e-06
-1.12507e-06
-6.1637e-07
-2.41417e-07
3.50512e-08
2.36319e-07
3.76748e-07
4.66134e-07
5.1353e-07
5.28991e-07
5.23097e-07
5.05218e-07
4.81914e-07
4.56309e-07
4.2872e-07
3.97985e-07
3.62927e-07
3.23286e-07
2.80035e-07
2.35061e-07
1.90619e-07
1.48743e-07
1.10904e-07
7.78914e-08
4.99364e-08
2.68975e-08
8.45037e-09
-5.81018e-09
-1.63304e-08
-2.35931e-08
-2.81135e-08
-2.99986e-08
-3.58556e-08
5.30096e-05
5.29957e-05
5.29604e-05
5.29001e-05
5.28089e-05
5.26768e-05
5.24895e-05
5.22282e-05
5.18683e-05
5.1377e-05
5.07111e-05
4.98138e-05
4.86116e-05
4.70096e-05
4.48885e-05
4.21e-05
3.8465e-05
3.37751e-05
2.77982e-05
2.02942e-05
1.1042e-05
-1.17656e-07
-1.32219e-05
-2.81107e-05
-4.4348e-05
-6.11598e-05
-7.74251e-05
-9.17563e-05
-0.000102698
-0.000109032
-0.000110105
-0.000106056
-9.77986e-05
-8.67569e-05
-7.44524e-05
-6.21543e-05
-5.07156e-05
-4.05904e-05
-3.19439e-05
-2.47631e-05
-1.89346e-05
-1.42929e-05
-1.06522e-05
-7.82977e-06
-5.66149e-06
-4.00916e-06
-2.76127e-06
-1.82839e-06
-1.1375e-06
-6.28375e-07
-2.52973e-07
2.40463e-08
2.25961e-07
3.67059e-07
4.57055e-07
5.04966e-07
5.20888e-07
5.15501e-07
4.98293e-07
4.75903e-07
4.51465e-07
4.25239e-07
3.95954e-07
3.62315e-07
3.23967e-07
2.81827e-07
2.37774e-07
1.94082e-07
1.52816e-07
1.15468e-07
8.28325e-08
5.51228e-08
3.21666e-08
1.36076e-08
-9.8233e-10
-1.20563e-08
-2.00873e-08
-2.55695e-08
-2.85745e-08
-3.56377e-08
5.29834e-05
5.29687e-05
5.29313e-05
5.28678e-05
5.27721e-05
5.26342e-05
5.24396e-05
5.21693e-05
5.17986e-05
5.12945e-05
5.06136e-05
4.96991e-05
4.84774e-05
4.68541e-05
4.47101e-05
4.18982e-05
3.82407e-05
3.35314e-05
2.75411e-05
2.00338e-05
1.0793e-05
-3.35181e-07
-1.3383e-05
-2.81869e-05
-4.43105e-05
-6.0985e-05
-7.71013e-05
-9.12909e-05
-0.000102122
-0.000108399
-0.000109482
-0.000105507
-9.73726e-05
-8.64748e-05
-7.43096e-05
-6.21291e-05
-5.07791e-05
-4.07146e-05
-3.21049e-05
-2.49422e-05
-1.9118e-05
-1.44709e-05
-1.08188e-05
-7.98173e-06
-5.79742e-06
-4.12904e-06
-2.86583e-06
-1.9188e-06
-1.21518e-06
-6.94869e-07
-3.09815e-07
-2.45498e-08
1.8442e-07
3.3161e-07
4.26917e-07
4.79475e-07
4.99448e-07
4.97574e-07
4.83423e-07
4.63739e-07
4.41765e-07
4.17844e-07
3.90751e-07
3.59186e-07
3.22766e-07
2.8237e-07
2.39846e-07
1.97456e-07
1.57267e-07
1.2078e-07
8.87941e-08
6.15164e-08
3.87623e-08
2.01617e-08
5.27847e-09
-6.33555e-09
-1.51349e-08
-2.15885e-08
-2.5759e-08
-3.42071e-08
5.29357e-05
5.29194e-05
5.28781e-05
5.28083e-05
5.2704e-05
5.25549e-05
5.23462e-05
5.20587e-05
5.16671e-05
5.11383e-05
5.04285e-05
4.94808e-05
4.82217e-05
4.65572e-05
4.43694e-05
4.15127e-05
3.78125e-05
3.30667e-05
2.70523e-05
1.95408e-05
1.0325e-05
-7.38898e-07
-1.36734e-05
-2.83085e-05
-4.42076e-05
-6.06122e-05
-7.64367e-05
-9.03499e-05
-0.000100966
-0.000107132
-0.000108234
-0.000104404
-9.65083e-05
-8.58907e-05
-7.39976e-05
-6.20476e-05
-5.08728e-05
-4.09292e-05
-3.23941e-05
-2.52694e-05
-1.9456e-05
-1.48007e-05
-1.11282e-05
-8.26405e-06
-6.04989e-06
-4.35137e-06
-3.05921e-06
-2.08527e-06
-1.3573e-06
-8.15547e-07
-4.12067e-07
-1.11222e-07
1.10901e-07
2.69331e-07
3.74403e-07
4.35515e-07
4.62926e-07
4.67399e-07
4.58554e-07
4.43263e-07
4.24969e-07
4.0424e-07
3.80034e-07
3.51165e-07
3.17282e-07
2.79238e-07
2.38833e-07
1.98283e-07
1.59628e-07
1.2436e-07
9.32838e-08
6.66177e-08
4.4185e-08
2.56231e-08
1.05071e-08
-1.59176e-09
-1.1097e-08
-1.84383e-08
-2.36399e-08
-3.32641e-08
5.28675e-05
5.2849e-05
5.28019e-05
5.2723e-05
5.26062e-05
5.24409e-05
5.22118e-05
5.18992e-05
5.14774e-05
5.09126e-05
5.01609e-05
4.91651e-05
4.78519e-05
4.6128e-05
4.3877e-05
4.09562e-05
3.71953e-05
3.23983e-05
2.6351e-05
1.8836e-05
9.6594e-06
-1.308e-06
-1.40753e-05
-2.84635e-05
-4.40364e-05
-6.0051e-05
-7.54561e-05
-8.89736e-05
-9.92828e-05
-0.000105291
-0.000106421
-0.000102799
-9.52427e-05
-8.50253e-05
-7.35227e-05
-6.19055e-05
-5.09857e-05
-4.12197e-05
-3.27956e-05
-2.57289e-05
-1.99336e-05
-1.52684e-05
-1.15681e-05
-8.66597e-06
-6.40943e-06
-4.66782e-06
-3.33406e-06
-2.32127e-06
-1.55802e-06
-9.85121e-07
-5.54856e-07
-2.31388e-07
9.78336e-09
1.84444e-07
3.03588e-07
3.77009e-07
4.15102e-07
4.28633e-07
4.27251e-07
4.17982e-07
4.04555e-07
3.87881e-07
3.67231e-07
3.41631e-07
3.10817e-07
2.75632e-07
2.37808e-07
1.99485e-07
1.62651e-07
1.28779e-07
9.86857e-08
7.2616e-08
5.04266e-08
3.17878e-08
1.63069e-08
3.59164e-09
-6.73772e-09
-1.50621e-08
-2.13613e-08
-3.21471e-08
5.27806e-05
5.27591e-05
5.27047e-05
5.26141e-05
5.24812e-05
5.2295e-05
5.20397e-05
5.16949e-05
5.12342e-05
5.06235e-05
4.98182e-05
4.8761e-05
4.73787e-05
4.55794e-05
4.32485e-05
4.0247e-05
3.64101e-05
3.15502e-05
2.5464e-05
1.79482e-05
8.82591e-06
-2.01422e-06
-1.45648e-05
-2.86363e-05
-4.37945e-05
-5.93166e-05
-7.41951e-05
-8.72189e-05
-9.71471e-05
-0.000102961
-0.000104126
-0.000100761
-9.36272e-05
-8.39085e-05
-7.28953e-05
-6.16988e-05
-5.11044e-05
-4.15677e-05
-3.3289e-05
-2.63002e-05
-2.05318e-05
-1.58572e-05
-1.21239e-05
-9.17534e-06
-6.86614e-06
-5.07055e-06
-3.68438e-06
-2.62245e-06
-1.81447e-06
-1.20199e-06
-7.37616e-07
-3.85308e-07
-1.19859e-07
7.54593e-08
2.12476e-07
3.01501e-07
3.53113e-07
3.78085e-07
3.86094e-07
3.8435e-07
3.76938e-07
3.65208e-07
3.48844e-07
3.27165e-07
3.00041e-07
2.68313e-07
2.33631e-07
1.98037e-07
1.63446e-07
1.31305e-07
1.02445e-07
7.71573e-08
5.53523e-08
3.67551e-08
2.10236e-08
7.81562e-09
-3.19489e-09
-1.23325e-08
-1.95212e-08
-3.1255e-08
5.26769e-05
5.2652e-05
5.25888e-05
5.24842e-05
5.23321e-05
5.2121e-05
5.18343e-05
5.14511e-05
5.09442e-05
5.02787e-05
4.94097e-05
4.82797e-05
4.68159e-05
4.49276e-05
4.25031e-05
3.94075e-05
3.54832e-05
3.0552e-05
2.44239e-05
1.69123e-05
7.85974e-06
-2.82454e-06
-1.51148e-05
-2.88107e-05
-4.34815e-05
-5.84293e-05
-7.26985e-05
-8.51545e-05
-9.46472e-05
-0.00010024
-0.000101446
-9.83755e-05
-9.17236e-05
-8.25774e-05
-7.21302e-05
-6.14247e-05
-5.12144e-05
-4.19518e-05
-3.38496e-05
-2.6958e-05
-2.12261e-05
-1.65444e-05
-1.27752e-05
-9.77384e-06
-7.40381e-06
-5.54521e-06
-4.09746e-06
-2.97756e-06
-2.11661e-06
-1.45709e-06
-9.52054e-07
-5.6524e-07
-2.70681e-07
-5.06025e-08
1.07784e-07
2.15402e-07
2.83073e-07
3.21604e-07
3.4072e-07
3.47844e-07
3.47469e-07
3.41455e-07
3.29973e-07
3.12693e-07
2.89657e-07
2.61718e-07
2.30445e-07
1.97769e-07
1.65524e-07
1.3513e-07
1.07444e-07
8.28165e-08
6.1233e-08
4.24919e-08
2.63175e-08
1.24296e-08
5.63265e-10
-9.54365e-09
-1.77516e-08
-3.04412e-08
5.25591e-05
5.25302e-05
5.2457e-05
5.23365e-05
5.21626e-05
5.19231e-05
5.16009e-05
5.11741e-05
5.06148e-05
4.98874e-05
4.89465e-05
4.77345e-05
4.61793e-05
4.41916e-05
4.1663e-05
3.84638e-05
3.44441e-05
2.9437e-05
2.32671e-05
1.57665e-05
6.79895e-06
-3.70409e-06
-1.56977e-05
-2.89713e-05
-4.30997e-05
-5.74144e-05
-7.1017e-05
-8.28562e-05
-9.18788e-05
-9.72348e-05
-9.84854e-05
-9.57316e-05
-8.95999e-05
-8.10746e-05
-7.12464e-05
-6.10836e-05
-5.1303e-05
-4.23512e-05
-3.44528e-05
-2.76764e-05
-2.19913e-05
-1.73068e-05
-1.35014e-05
-1.0444e-05
-8.00785e-06
-6.07993e-06
-4.56395e-06
-3.37954e-06
-2.45944e-06
-1.74724e-06
-1.19647e-06
-7.70727e-07
-4.43266e-07
-1.95216e-07
-1.27546e-08
1.15738e-07
2.01395e-07
2.55108e-07
2.86682e-07
3.03786e-07
3.11348e-07
3.11781e-07
3.05783e-07
2.93413e-07
2.74915e-07
2.51173e-07
2.23679e-07
1.94255e-07
1.64654e-07
1.36269e-07
1.0999e-07
8.62339e-08
6.50717e-08
4.63839e-08
2.99678e-08
1.56087e-08
3.10504e-09
-7.742e-09
-1.67197e-08
-3.01142e-08
5.243e-05
5.23968e-05
5.23126e-05
5.21746e-05
5.19768e-05
5.17064e-05
5.13453e-05
5.08709e-05
5.02546e-05
4.94599e-05
4.84409e-05
4.71402e-05
4.54864e-05
4.33921e-05
4.07525e-05
3.74437e-05
3.33245e-05
2.82403e-05
2.20316e-05
1.455e-05
5.68185e-06
-4.61871e-06
-1.62879e-05
-2.91058e-05
-4.26555e-05
-5.63009e-05
-6.92048e-05
-8.04024e-05
-8.89389e-05
-9.40513e-05
-9.53484e-05
-9.29209e-05
-8.73266e-05
-7.94464e-05
-7.02671e-05
-6.06794e-05
-5.13601e-05
-4.27467e-05
-3.50739e-05
-2.84287e-05
-2.28006e-05
-1.81187e-05
-1.42789e-05
-1.11642e-05
-8.65896e-06
-6.65756e-06
-5.06865e-06
-3.81487e-06
-2.8309e-06
-2.06154e-06
-1.46091e-06
-9.92529e-07
-6.28905e-07
-3.5009e-07
-1.41203e-07
1.01322e-08
1.15429e-07
1.85722e-07
2.30939e-07
2.5901e-07
2.75311e-07
2.82815e-07
2.82766e-07
2.75635e-07
2.61895e-07
2.42485e-07
2.18842e-07
1.92694e-07
1.65721e-07
1.393e-07
1.14356e-07
9.13811e-08
7.05347e-08
5.17838e-08
3.50011e-08
2.00388e-08
6.75808e-09
-4.97998e-09
-1.49072e-08
-2.92071e-08
5.22928e-05
5.2255e-05
5.21592e-05
5.20027e-05
5.17795e-05
5.14762e-05
5.1074e-05
5.05493e-05
4.98727e-05
4.90071e-05
4.79061e-05
4.65125e-05
4.47558e-05
4.25509e-05
3.97968e-05
3.63761e-05
3.2157e-05
2.69974e-05
2.07548e-05
1.3301e-05
4.54487e-06
-5.53704e-06
-1.68629e-05
-2.92056e-05
-4.21585e-05
-5.51205e-05
-6.73169e-05
-7.78696e-05
-8.59205e-05
-9.07907e-05
-9.21343e-05
-9.00311e-05
-8.49728e-05
-7.77403e-05
-6.92182e-05
-6.02198e-05
-5.13793e-05
-4.31223e-05
-3.56912e-05
-2.91902e-05
-2.36288e-05
-1.8956e-05
-1.50855e-05
-1.1915e-05
-9.34018e-06
-7.26381e-06
-5.59983e-06
-4.27425e-06
-3.22387e-06
-2.39484e-06
-1.74197e-06
-1.22873e-06
-8.26983e-07
-5.15749e-07
-2.79088e-07
-1.03828e-07
2.19956e-08
1.09626e-07
1.6915e-07
2.08771e-07
2.34305e-07
2.49274e-07
2.55463e-07
2.53767e-07
2.44911e-07
2.2992e-07
2.10201e-07
1.87412e-07
1.63175e-07
1.38855e-07
1.15412e-07
9.34098e-08
7.30919e-08
5.45054e-08
3.75931e-08
2.22692e-08
8.45421e-09
-3.93089e-09
-1.45375e-08
-2.9395e-08
5.21507e-05
5.21082e-05
5.20004e-05
5.18247e-05
5.15754e-05
5.12382e-05
5.07936e-05
5.02172e-05
4.94787e-05
4.85405e-05
4.73558e-05
4.58675e-05
4.40065e-05
4.169e-05
3.88213e-05
3.52898e-05
3.09731e-05
2.57427e-05
1.94727e-05
1.20551e-05
3.42093e-06
-6.43189e-06