/*--------------------------------*- C++ -*----------------------------------*\
| =========                 |                                                 |
| \\      /  F ield         | OpenFOAM: The Open Source CFD Toolbox           |
|  \\    /   O peration     | Version:  2512                                  |
|   \\  /    A nd           | Website:  www.openfoam.com                      |
|    \\/     M anipulation  |                                                 |
\*---------------------------------------------------------------------------*/
FoamFile
{
    version     2.0;
    format      ascii;
    arch        "LSB;label=32;scalar=64";
    class       volScalarField;
    location    "100";
    object      p;
}
// * * * * * * * * * * * * * * * * * * * * * * * * * * * * * * * * * * * * * //

dimensions      [0 2 -2 0 0 0 0];

internalField   nonuniform List<scalar> 
248793
(
3.12391e-05
3.12033e-05
3.1111e-05
3.09636e-05
3.07598e-05
3.04925e-05
3.01508e-05
2.97211e-05
2.91866e-05
2.85273e-05
2.77198e-05
2.67378e-05
2.55519e-05
2.4131e-05
2.24422e-05
2.04536e-05
1.8136e-05
1.54661e-05
1.24296e-05
9.02602e-06
5.2733e-06
1.2127e-06
-3.08703e-06
-7.52733e-06
-1.19805e-05
-1.62946e-05
-2.03026e-05
-2.38362e-05
-2.6743e-05
-2.89044e-05
-3.02508e-05
-3.07706e-05
-3.05099e-05
-2.95644e-05
-2.80645e-05
-2.61568e-05
-2.39875e-05
-2.16892e-05
-1.93727e-05
-1.71238e-05
-1.50036e-05
-1.30511e-05
-1.12871e-05
-9.71822e-06
-8.34056e-06
-7.14346e-06
-6.11204e-06
-5.22936e-06
-4.47791e-06
-3.84067e-06
-3.30173e-06
-2.84678e-06
-2.46317e-06
-2.14005e-06
-1.86816e-06
-1.63968e-06
-1.44802e-06
-1.28757e-06
-1.1535e-06
-1.04167e-06
-9.48453e-07
-8.7065e-07
-8.05384e-07
-7.50019e-07
-7.02108e-07
-6.59376e-07
-6.19741e-07
-5.8137e-07
-5.42741e-07
-5.02712e-07
-4.60551e-07
-4.15951e-07
-3.6899e-07
-3.20073e-07
-2.69837e-07
-2.19092e-07
-1.68736e-07
-1.19787e-07
-7.31388e-08
-3.26777e-08
3.12492e-05
3.12137e-05
3.11224e-05
3.09763e-05
3.07744e-05
3.05094e-05
3.01706e-05
2.97445e-05
2.92143e-05
2.856e-05
2.77582e-05
2.67824e-05
2.56034e-05
2.41895e-05
2.25078e-05
2.05256e-05
1.82131e-05
1.5546e-05
1.25091e-05
9.1009e-06
5.33818e-06
1.26144e-06
-3.06095e-06
-7.53015e-06
-1.20173e-05
-1.63683e-05
-2.0413e-05
-2.39795e-05
-2.69115e-05
-2.90875e-05
-3.0436e-05
-3.09456e-05
-3.0664e-05
-2.96904e-05
-2.81586e-05
-2.6219e-05
-2.40205e-05
-2.16975e-05
-1.93616e-05
-1.70986e-05
-1.49691e-05
-1.30114e-05
-1.12456e-05
-9.67709e-06
-8.30154e-06
-7.1076e-06
-6.07988e-06
-5.20111e-06
-4.45352e-06
-3.81991e-06
-3.28431e-06
-2.83232e-06
-2.4513e-06
-2.1304e-06
-1.86038e-06
-1.63348e-06
-1.44312e-06
-1.28371e-06
-1.15046e-06
-1.03924e-06
-9.46459e-07
-8.68938e-07
-8.03835e-07
-7.48551e-07
-7.00668e-07
-6.57939e-07
-6.18304e-07
-5.79949e-07
-5.41365e-07
-5.0142e-07
-4.59386e-07
-4.14958e-07
-3.68213e-07
-3.19548e-07
-2.69587e-07
-2.19121e-07
-1.69021e-07
-1.20249e-07
-7.36448e-08
-3.28706e-08
3.12691e-05
3.12342e-05
3.11446e-05
3.10012e-05
3.08029e-05
3.05427e-05
3.02098e-05
2.97908e-05
2.9269e-05
2.86246e-05
2.7834e-05
2.68708e-05
2.57053e-05
2.43053e-05
2.26374e-05
2.06679e-05
1.83656e-05
1.57043e-05
1.2667e-05
9.24978e-06
5.46756e-06
1.35911e-06
-3.00804e-06
-7.53455e-06
-1.20893e-05
-1.65139e-05
-2.06319e-05
-2.42641e-05
-2.72467e-05
-2.94519e-05
-3.08049e-05
-3.12939e-05
-3.09708e-05
-2.99408e-05
-2.83454e-05
-2.63422e-05
-2.40856e-05
-2.17136e-05
-1.93392e-05
-1.70483e-05
-1.49006e-05
-1.29327e-05
-1.1163e-05
-9.59546e-06
-8.22408e-06
-7.03633e-06
-6.01591e-06
-5.14482e-06
-4.40483e-06
-3.77841e-06
-3.24938e-06
-2.80326e-06
-2.42737e-06
-2.11088e-06
-1.84463e-06
-1.6209e-06
-1.43317e-06
-1.27592e-06
-1.14438e-06
-1.03447e-06
-9.42638e-07
-8.65766e-07
-8.01071e-07
-7.46017e-07
-6.98243e-07
-6.55554e-07
-6.15931e-07
-5.77593e-07
-5.39059e-07
-4.99216e-07
-4.57353e-07
-4.13171e-07
-3.66744e-07
-3.18461e-07
-2.68927e-07
-2.189e-07
-1.69206e-07
-1.20737e-07
-7.42305e-08
-3.31503e-08
3.12981e-05
3.12642e-05
3.11771e-05
3.10378e-05
3.08449e-05
3.05916e-05
3.02674e-05
2.9859e-05
2.93498e-05
2.872e-05
2.7946e-05
2.70013e-05
2.58557e-05
2.44765e-05
2.28292e-05
2.08786e-05
1.85914e-05
1.59391e-05
1.29015e-05
9.47156e-06
5.66094e-06
1.50588e-06
-2.92744e-06
-7.53904e-06
-1.21945e-05
-1.67291e-05
-2.0957e-05
-2.46879e-05
-2.77465e-05
-2.99957e-05
-3.13551e-05
-3.18131e-05
-3.14272e-05
-3.03123e-05
-2.86216e-05
-2.65233e-05
-2.41802e-05
-2.17355e-05
-1.93043e-05
-1.69724e-05
-1.47979e-05
-1.28153e-05
-1.10402e-05
-9.4742e-06
-8.10914e-06
-6.93067e-06
-5.92112e-06
-5.06145e-06
-4.33273e-06
-3.71696e-06
-3.19768e-06
-2.76025e-06
-2.39196e-06
-2.08204e-06
-1.8214e-06
-1.60242e-06
-1.41866e-06
-1.26466e-06
-1.13571e-06
-1.02779e-06
-9.3741e-07
-8.61536e-07
-7.97476e-07
-7.42783e-07
-6.95179e-07
-6.5254e-07
-6.12906e-07
-5.74547e-07
-5.36022e-07
-4.96253e-07
-4.54554e-07
-4.10642e-07
-3.64591e-07
-3.16781e-07
-2.6779e-07
-2.18338e-07
-1.69192e-07
-1.21156e-07
-7.48386e-08
-3.35045e-08
3.13358e-05
3.13031e-05
3.12193e-05
3.10851e-05
3.08993e-05
3.0655e-05
3.03422e-05
2.99475e-05
2.94547e-05
2.88439e-05
2.80916e-05
2.7171e-05
2.60515e-05
2.46995e-05
2.30792e-05
2.11536e-05
1.88868e-05
1.62469e-05
1.32097e-05
9.76388e-06
5.91693e-06
1.70151e-06
-2.81816e-06
-7.54146e-06
-1.23298e-05
-1.70099e-05
-2.13839e-05
-2.52463e-05
-2.84064e-05
-3.07141e-05
-3.20818e-05
-3.2498e-05
-3.20278e-05
-3.07996e-05
-2.8982e-05
-2.67577e-05
-2.43008e-05
-2.17607e-05
-1.92555e-05
-1.68705e-05
-1.46617e-05
-1.26604e-05
-1.08789e-05
-9.31535e-06
-7.95887e-06
-6.79277e-06
-5.79755e-06
-4.95289e-06
-4.23894e-06
-3.6371e-06
-3.13054e-06
-2.70445e-06
-2.34609e-06
-2.04473e-06
-1.79141e-06
-1.57863e-06
-1.40006e-06
-1.2503e-06
-1.12473e-06
-1.0194e-06
-9.30896e-07
-8.56309e-07
-7.9306e-07
-7.38817e-07
-6.91411e-07
-6.48806e-07
-6.0912e-07
-5.70684e-07
-5.32112e-07
-4.92374e-07
-4.50817e-07
-4.07183e-07
-3.61551e-07
-3.14286e-07
-2.65937e-07
-2.17176e-07
-1.68701e-07
-1.21219e-07
-7.51992e-08
-3.37234e-08
3.1381e-05
3.13499e-05
3.127e-05
3.1142e-05
3.09647e-05
3.07315e-05
3.04323e-05
3.00543e-05
2.95813e-05
2.89935e-05
2.82676e-05
2.73763e-05
2.62886e-05
2.497e-05
2.3383e-05
2.14884e-05
1.9247e-05
1.66231e-05
1.35875e-05
1.01237e-05
6.2337e-06
1.94561e-06
-2.67899e-06
-7.539e-06
-1.24908e-05
-1.73511e-05
-2.19067e-05
-2.5933e-05
-2.92199e-05
-3.16007e-05
-3.29784e-05
-3.33417e-05
-3.27656e-05
-3.13956e-05
-2.94201e-05
-2.704e-05
-2.4443e-05
-2.17865e-05
-1.91915e-05
-1.67426e-05
-1.4493e-05
-1.24699e-05
-1.06813e-05
-9.12146e-06
-7.77595e-06
-6.62523e-06
-5.64768e-06
-4.82142e-06
-4.1255e-06
-3.54063e-06
-3.04953e-06
-2.63719e-06
-2.29084e-06
-1.99984e-06
-1.75536e-06
-1.55007e-06
-1.37776e-06
-1.23312e-06
-1.11162e-06
-1.00939e-06
-9.23143e-07
-8.50099e-07
-7.87825e-07
-7.34133e-07
-6.86977e-07
-6.44429e-07
-6.04691e-07
-5.6617e-07
-5.27545e-07
-4.87837e-07
-4.46439e-07
-4.03119e-07
-3.57963e-07
-3.11319e-07
-2.63703e-07
-2.15732e-07
-1.68027e-07
-1.21193e-07
-7.55541e-08
-3.39996e-08
3.14327e-05
3.14034e-05
3.1328e-05
3.12071e-05
3.10396e-05
3.0819e-05
3.05356e-05
3.01768e-05
2.97266e-05
2.91655e-05
2.847e-05
2.76128e-05
2.65622e-05
2.52825e-05
2.37346e-05
2.18765e-05
1.96657e-05
1.70616e-05
1.40296e-05
1.05466e-05
6.60824e-06
2.23699e-06
-2.5091e-06
-7.52871e-06
-1.26728e-05
-1.77462e-05
-2.25175e-05
-2.67395e-05
-3.01781e-05
-3.26462e-05
-3.40354e-05
-3.43345e-05
-3.36309e-05
-3.2091e-05
-2.99274e-05
-2.73631e-05
-2.46016e-05
-2.18095e-05
-1.91107e-05
-1.65889e-05
-1.42931e-05
-1.2246e-05
-1.04505e-05
-8.8959e-06
-7.5638e-06
-6.43143e-06
-5.47468e-06
-4.66992e-06
-3.99499e-06
-3.42977e-06
-2.95654e-06
-2.56004e-06
-2.22749e-06
-1.94837e-06
-1.71404e-06
-1.51732e-06
-1.35216e-06
-1.21337e-06
-1.0965e-06
-9.97801e-07
-9.14115e-07
-8.42823e-07
-7.81665e-07
-7.28616e-07
-6.81771e-07
-6.39319e-07
-5.99556e-07
-5.60969e-07
-5.22305e-07
-4.82647e-07
-4.41433e-07
-3.98462e-07
-3.53825e-07
-3.07856e-07
-2.6103e-07
-2.13903e-07
-1.67021e-07
-1.20884e-07
-7.56833e-08
-3.41314e-08
3.14895e-05
3.14622e-05
3.13918e-05
3.12789e-05
3.11221e-05
3.09155e-05
3.06496e-05
3.03121e-05
2.98873e-05
2.93558e-05
2.86943e-05
2.78752e-05
2.68661e-05
2.56303e-05
2.41267e-05
2.23105e-05
2.01353e-05
1.75551e-05
1.4529e-05
1.10267e-05
7.03626e-06
2.57344e-06
-2.3082e-06
-7.50761e-06
-1.287e-05
-1.8187e-05
-2.32065e-05
-2.76547e-05
-3.1269e-05
-3.38383e-05
-3.52402e-05
-3.54639e-05
-3.46114e-05
-3.28743e-05
-3.0494e-05
-2.7719e-05
-2.47709e-05
-2.18264e-05
-1.90123e-05
-1.64101e-05
-1.40645e-05
-1.19922e-05
-1.01903e-05
-8.64281e-06
-7.32661e-06
-6.21536e-06
-5.28226e-06
-4.50175e-06
-3.85035e-06
-3.30711e-06
-2.85376e-06
-2.47484e-06
-2.15758e-06
-1.89159e-06
-1.66845e-06
-1.4812e-06
-1.32395e-06
-1.19162e-06
-1.07986e-06
-9.85057e-07
-9.04205e-07
-8.34867e-07
-7.74978e-07
-7.22692e-07
-6.76257e-07
-6.33982e-07
-5.94261e-07
-5.55662e-07
-5.17003e-07
-4.77429e-07
-4.3643e-07
-3.93835e-07
-3.49744e-07
-3.0447e-07
-2.58447e-07
-2.12171e-07
-1.6611e-07
-1.20668e-07
-7.59082e-08
-3.4372e-08
3.15501e-05
3.15249e-05
3.14598e-05
3.13554e-05
3.12103e-05
3.10187e-05
3.07715e-05
3.04569e-05
3.00594e-05
2.956e-05
2.89353e-05
2.81574e-05
2.71936e-05
2.60059e-05
2.45511e-05
2.27815e-05
2.06463e-05
1.80941e-05
1.50769e-05
1.15562e-05
7.51178e-06
2.95134e-06
-2.07696e-06
-7.47306e-06
-1.30764e-05
-1.86644e-05
-2.39617e-05
-2.86642e-05
-3.24769e-05
-3.51606e-05
-3.65762e-05
-3.67133e-05
-3.56914e-05
-3.37315e-05
-3.1108e-05
-2.80985e-05
-2.4945e-05
-2.18343e-05
-1.88956e-05
-1.62079e-05
-1.38102e-05
-1.17126e-05
-9.90552e-06
-8.36712e-06
-7.06925e-06
-5.98165e-06
-5.07466e-06
-4.3207e-06
-3.69493e-06
-3.17549e-06
-2.74361e-06
-2.38359e-06
-2.0827e-06
-1.83075e-06
-1.61957e-06
-1.44244e-06
-1.29363e-06
-1.16819e-06
-1.06189e-06
-9.71224e-07
-8.93385e-07
-8.26137e-07
-7.67623e-07
-7.1619e-07
-6.70243e-07
-6.28215e-07
-5.88593e-07
-5.50025e-07
-5.11399e-07
-4.71929e-07
-4.31155e-07
-3.8894e-07
-3.45391e-07
-3.00803e-07
-2.55566e-07
-2.10118e-07
-1.64852e-07
-1.20085e-07
-7.57769e-08
-3.43504e-08
3.1613e-05
3.15899e-05
3.15304e-05
3.14348e-05
3.13018e-05
3.11259e-05
3.08984e-05
3.06077e-05
3.02389e-05
2.97731e-05
2.91871e-05
2.84529e-05
2.75371e-05
2.64006e-05
2.49982e-05
2.32791e-05
2.11881e-05
1.86677e-05
1.56626e-05
1.21256e-05
8.02687e-06
3.36534e-06
-1.81738e-06
-7.42308e-06
-1.32857e-05
-1.91677e-05
-2.47685e-05
-2.97506e-05
-3.37823e-05
-3.6592e-05
-3.80221e-05
-3.80623e-05
-3.6852e-05
-3.46459e-05
-3.1756e-05
-2.84921e-05
-2.51178e-05
-2.18305e-05
-1.87612e-05
-1.59849e-05
-1.35344e-05
-1.14124e-05
-9.60192e-06
-8.07475e-06
-6.79743e-06
-5.73564e-06
-4.85675e-06
-4.13113e-06
-3.53255e-06
-3.03826e-06
-2.62894e-06
-2.28873e-06
-2.00494e-06
-1.76763e-06
-1.56893e-06
-1.40236e-06
-1.26236e-06
-1.14411e-06
-1.0435e-06
-9.57151e-07
-8.82458e-07
-8.17405e-07
-7.60363e-07
-7.09877e-07
-6.64508e-07
-6.22805e-07
-5.83346e-07
-5.44853e-07
-5.06285e-07
-4.66922e-07
-4.26361e-07
-3.84501e-07
-3.41461e-07
-2.97517e-07
-2.53019e-07
-2.08344e-07
-1.63816e-07
-1.19676e-07
-7.57942e-08
-3.44812e-08
3.16764e-05
3.16556e-05
3.16017e-05
3.15151e-05
3.13944e-05
3.12345e-05
3.1027e-05
3.07607e-05
3.04212e-05
2.99899e-05
2.94437e-05
2.87545e-05
2.78884e-05
2.68052e-05
2.54576e-05
2.37919e-05
2.17482e-05
1.92632e-05
1.62735e-05
1.27229e-05
8.57137e-06
3.80799e-06
-1.5332e-06
-7.35677e-06
-1.34918e-05
-1.96853e-05
-2.56102e-05
-3.08927e-05
-3.51605e-05
-3.81065e-05
-3.95514e-05
-3.94854e-05
-3.80703e-05
-3.55983e-05
-3.24232e-05
-2.88897e-05
-2.5284e-05
-2.18137e-05
-1.86107e-05
-1.57453e-05
-1.32429e-05
-1.10981e-05
-9.2863e-06
-7.77242e-06
-6.51754e-06
-5.48319e-06
-4.63377e-06
-3.93762e-06
-3.36715e-06
-2.8987e-06
-2.51248e-06
-2.19244e-06
-1.92602e-06
-1.70356e-06
-1.5175e-06
-1.36162e-06
-1.23055e-06
-1.11958e-06
-1.02468e-06
-9.42669e-07
-8.71122e-07
-8.08273e-07
-7.52726e-07
-7.03229e-07
-6.58493e-07
-6.1717e-07
-5.77918e-07
-5.39526e-07
-5.01021e-07
-4.61751e-07
-4.21374e-07
-3.79832e-07
-3.37256e-07
-2.93911e-07
-2.50105e-07
-2.0616e-07
-1.62334e-07
-1.18801e-07
-7.53654e-08
-3.42832e-08
3.17388e-05
3.17202e-05
3.16719e-05
3.15942e-05
3.14858e-05
3.13417e-05
3.1154e-05
3.09122e-05
3.06019e-05
3.02049e-05
2.96986e-05
2.90546e-05
2.82387e-05
2.72095e-05
2.59179e-05
2.43072e-05
2.23131e-05
1.98661e-05
1.68951e-05
1.33342e-05
9.1328e-06
4.2695e-06
-1.23022e-06
-7.27471e-06
-1.36888e-05
-2.02046e-05
-2.64676e-05
-3.20654e-05
-3.65824e-05
-3.96722e-05
-4.11321e-05
-4.09525e-05
-3.93197e-05
-3.65672e-05
-3.30938e-05
-2.92812e-05
-2.54389e-05
-2.17837e-05
-1.84474e-05
-1.54946e-05
-1.29426e-05
-1.07775e-05
-8.96652e-06
-7.46776e-06
-6.23673e-06
-5.23082e-06
-4.41157e-06
-3.74533e-06
-3.20322e-06
-2.76073e-06
-2.39759e-06
-2.09764e-06
-1.84847e-06
-1.64073e-06
-1.46721e-06
-1.32196e-06
-1.19976e-06
-1.096e-06
-1.00676e-06
-9.29007e-07
-8.60546e-07
-7.99863e-07
-7.4581e-07
-6.97331e-07
-6.53273e-07
-6.12382e-07
-5.73375e-07
-5.35099e-07
-4.96645e-07
-4.57429e-07
-4.17176e-07
-3.75877e-07
-3.33683e-07
-2.90851e-07
-2.47655e-07
-2.04364e-07
-1.61175e-07
-1.18199e-07
-7.5182e-08
-3.43148e-08
3.17985e-05
3.1782e-05
3.17392e-05
3.16701e-05
3.15735e-05
3.14447e-05
3.12764e-05
3.10581e-05
3.07762e-05
3.04128e-05
2.99453e-05
2.93456e-05
2.85789e-05
2.76031e-05
2.63672e-05
2.48117e-05
2.2868e-05
2.04607e-05
1.75109e-05
1.39433e-05
9.69632e-06
4.73763e-06
-9.16536e-07
-7.17927e-06
-1.38722e-05
-2.0713e-05
-2.73196e-05
-3.32402e-05
-3.80134e-05
-4.12515e-05
-4.27263e-05
-4.24283e-05
-4.05699e-05
-3.75288e-05
-3.37513e-05
-2.96573e-05
-2.5579e-05
-2.17418e-05
-1.82761e-05
-1.52399e-05
-1.26418e-05
-1.04592e-05
-8.65119e-06
-7.16888e-06
-5.96237e-06
-4.98508e-06
-4.1958e-06
-3.55908e-06
-3.04478e-06
-2.62761e-06
-2.28687e-06
-2.00631e-06
-1.77373e-06
-1.58014e-06
-1.41869e-06
-1.28368e-06
-1.17003e-06
-1.07319e-06
-9.89339e-07
-9.1561e-07
-8.50043e-07
-7.91392e-07
-7.38756e-07
-6.91271e-07
-6.47909e-07
-6.07483e-07
-5.68753e-07
-5.3061e-07
-4.92201e-07
-4.53009e-07
-4.1283e-07
-3.71708e-07
-3.29828e-07
-2.87443e-07
-2.44798e-07
-2.02113e-07
-1.59528e-07
-1.17101e-07
-7.45358e-08
-3.39971e-08
3.18541e-05
3.18396e-05
3.18018e-05
3.17408e-05
3.16553e-05
3.1541e-05
3.13907e-05
3.11947e-05
3.09396e-05
3.06079e-05
3.01773e-05
2.96197e-05
2.89001e-05
2.79754e-05
2.67933e-05
2.52915e-05
2.33974e-05
2.10301e-05
1.81034e-05
1.45324e-05
1.0245e-05
5.19789e-06
-6.02524e-07
-7.07478e-06
-1.40384e-05
-2.11976e-05
-2.81436e-05
-3.43852e-05
-3.94148e-05
-4.28016e-05
-4.42908e-05
-4.38728e-05
-4.17875e-05
-3.8458e-05
-3.43792e-05
-3.00093e-05
-2.57023e-05
-2.16911e-05
-1.81032e-05
-1.49896e-05
-1.23501e-05
-1.01531e-05
-8.3498e-06
-6.88465e-06
-5.70255e-06
-4.7532e-06
-3.99287e-06
-3.38446e-06
-2.89671e-06
-2.50361e-06
-2.18404e-06
-1.92172e-06
-1.7047e-06
-1.52439e-06
-1.37428e-06
-1.24891e-06
-1.14331e-06
-1.05297e-06
-9.7415e-07
-9.04133e-07
-8.41205e-07
-7.84396e-07
-7.33055e-07
-6.86501e-07
-6.43814e-07
-6.03853e-07
-5.65404e-07
-5.27383e-07
-4.88981e-07
-4.49752e-07
-4.09559e-07
-3.68513e-07
-3.26833e-07
-2.84782e-07
-2.42583e-07
-2.00412e-07
-1.58359e-07
-1.16427e-07
-7.42779e-08
-3.40203e-08
3.1904e-05
3.18913e-05
3.18582e-05
3.18045e-05
3.17291e-05
3.16279e-05
3.14942e-05
3.13185e-05
3.10878e-05
3.07851e-05
3.03883e-05
2.98695e-05
2.91933e-05
2.83161e-05
2.71841e-05
2.57326e-05
2.38857e-05
2.15572e-05
1.86539e-05
1.50825e-05
1.07606e-05
5.63391e-06
-3.00616e-07
-6.96756e-06
-1.41853e-05
-2.16462e-05
-2.89163e-05
-3.54667e-05
-4.07441e-05
-4.42749e-05
-4.57779e-05
-4.52428e-05
-4.29367e-05
-3.93286e-05
-3.49612e-05
-3.03298e-05
-2.58087e-05
-2.16362e-05
-1.79366e-05
-1.47533e-05
-1.20776e-05
-9.8692e-06
-8.07182e-06
-6.62364e-06
-5.4648e-06
-4.54162e-06
-3.80817e-06
-3.2259e-06
-2.76257e-06
-2.39146e-06
-2.09115e-06
-1.84534e-06
-1.64234e-06
-1.47398e-06
-1.33411e-06
-1.21748e-06
-1.11918e-06
-1.03471e-06
-9.60379e-07
-8.93629e-07
-8.32982e-07
-7.77741e-07
-7.27505e-07
-6.81764e-07
-6.39687e-07
-6.00165e-07
-5.61985e-07
-5.24075e-07
-4.85659e-07
-4.46351e-07
-4.06085e-07
-3.65039e-07
-3.23478e-07
-2.81679e-07
-2.3985e-07
-1.98133e-07
-1.56569e-07
-1.1512e-07
-7.34177e-08
-3.35648e-08
3.19469e-05
3.19358e-05
3.19067e-05
3.18594e-05
3.17928e-05
3.17031e-05
3.15839e-05
3.14259e-05
3.12168e-05
3.09396e-05
3.05726e-05
3.00879e-05
2.94502e-05
2.86152e-05
2.75279e-05
2.61217e-05
2.43176e-05
2.20248e-05
1.91441e-05
1.55743e-05
1.12237e-05
6.02815e-06
-2.47368e-08
-6.86559e-06
-1.43125e-05
-2.20477e-05
-2.96148e-05
-3.64498e-05
-4.19567e-05
-4.56216e-05
-4.71371e-05
-4.64924e-05
-4.39809e-05
-4.01148e-05
-3.54824e-05
-3.06131e-05
-2.58992e-05
-2.15831e-05
-1.77853e-05
-1.45416e-05
-1.18352e-05
-9.61819e-06
-7.82722e-06
-6.39492e-06
-5.2572e-06
-4.35749e-06
-3.64797e-06
-3.08888e-06
-2.64711e-06
-2.29538e-06
-2.01192e-06
-1.78047e-06
-1.58964e-06
-1.43166e-06
-1.30072e-06
-1.19173e-06
-1.09982e-06
-1.02047e-06
-9.50025e-07
-8.86041e-07
-8.27275e-07
-7.73295e-07
-7.23933e-07
-6.7884e-07
-6.37262e-07
-5.98104e-07
-5.60143e-07
-5.22299e-07
-4.83823e-07
-4.44376e-07
-4.03964e-07
-3.6283e-07
-3.21286e-07
-2.79635e-07
-2.38078e-07
-1.96725e-07
-1.55577e-07
-1.14555e-07
-7.325e-08
-3.36977e-08
3.19817e-05
3.19719e-05
3.19461e-05
3.19041e-05
3.18449e-05
3.17646e-05
3.16574e-05
3.15142e-05
3.13229e-05
3.10669e-05
3.07248e-05
3.02688e-05
2.96633e-05
2.88637e-05
2.78142e-05
2.64465e-05
2.46789e-05
2.2417e-05
1.95563e-05
1.59891e-05
1.16156e-05
6.36299e-06
2.10596e-07
-6.77789e-06
-1.44209e-05
-2.23925e-05
-3.02171e-05
-3.73004e-05
-4.30086e-05
-4.67913e-05
-4.83178e-05
-4.75764e-05
-4.4884e-05
-4.0792e-05
-3.59292e-05
-3.08549e-05
-2.59763e-05
-2.15387e-05
-1.76584e-05
-1.43647e-05
-1.16333e-05
-9.40974e-06
-7.62473e-06
-6.2061e-06
-5.08624e-06
-4.20619e-06
-3.51663e-06
-2.97682e-06
-2.55295e-06
-2.21721e-06
-1.9476e-06
-1.72788e-06
-1.54695e-06
-1.3974e-06
-1.27373e-06
-1.171e-06
-1.08433e-06
-1.00914e-06
-9.41799e-07
-8.79962e-07
-8.22586e-07
-7.69479e-07
-7.20688e-07
-6.76007e-07
-6.34747e-07
-5.95818e-07
-5.57974e-07
-5.20124e-07
-4.81527e-07
-4.41888e-07
-4.0127e-07
-3.5998e-07
-3.18381e-07
-2.768e-07
-2.35439e-07
-1.94383e-07
-1.536e-07
-1.12978e-07
-7.20988e-08
-3.30128e-08
3.20073e-05
3.19985e-05
3.19753e-05
3.19374e-05
3.18837e-05
3.18108e-05
3.17127e-05
3.15809e-05
3.14033e-05
3.11636e-05
3.08406e-05
3.04066e-05
2.98261e-05
2.9054e-05
2.80338e-05
2.6696e-05
2.4957e-05
2.27194e-05
1.98748e-05
1.631e-05
1.1919e-05
6.62196e-06
3.91445e-07
-6.71366e-06
-1.45124e-05
-2.26729e-05
-3.07041e-05
-3.79875e-05
-4.38586e-05
-4.77368e-05
-4.92722e-05
-4.84521e-05
-4.56129e-05
-4.13382e-05
-3.62903e-05
-3.10524e-05
-2.60433e-05
-2.151e-05
-1.75652e-05
-1.42324e-05
-1.14817e-05
-9.25317e-06
-7.47284e-06
-6.06479e-06
-4.95864e-06
-4.09363e-06
-3.41933e-06
-2.89425e-06
-2.48405e-06
-2.16051e-06
-1.9014e-06
-1.69053e-06
-1.51704e-06
-1.37383e-06
-1.25566e-06
-1.15768e-06
-1.075e-06
-1.00298e-06
-9.37943e-07
-8.77646e-07
-8.212e-07
-7.68614e-07
-7.20116e-07
-6.75622e-07
-6.34498e-07
-5.95654e-07
-5.57822e-07
-5.19891e-07
-4.81124e-07
-4.41254e-07
-4.00396e-07
-3.58909e-07
-3.17204e-07
-2.75634e-07
-2.344e-07
-1.93574e-07
-1.53094e-07
-1.12814e-07
-7.22765e-08
-3.3429e-08
3.20231e-05
3.2015e-05
3.19934e-05
3.19582e-05
3.19083e-05
3.18402e-05
3.17482e-05
3.1624e-05
3.14555e-05
3.12268e-05
3.09166e-05
3.04974e-05
2.99336e-05
2.91799e-05
2.81795e-05
2.68618e-05
2.5142e-05
2.29207e-05
2.00867e-05
1.65231e-05
1.21195e-05
6.79114e-06
5.05805e-07
-6.68113e-06
-1.45894e-05
-2.28827e-05
-3.10599e-05
-3.84849e-05
-4.44715e-05
-4.84177e-05
-4.99592e-05
-4.9083e-05
-4.61393e-05
-4.17352e-05
-3.65567e-05
-3.12038e-05
-2.61034e-05
-2.15032e-05
-1.7513e-05
-1.41527e-05
-1.13881e-05
-9.15543e-06
-7.37764e-06
-5.97613e-06
-4.87865e-06
-4.02323e-06
-3.3587e-06
-2.8431e-06
-2.4417e-06
-2.126e-06
-1.8736e-06
-1.66832e-06
-1.49948e-06
-1.36022e-06
-1.24548e-06
-1.15048e-06
-1.07028e-06
-1.00018e-06
-9.36486e-07
-8.76973e-07
-8.20874e-07
-7.68344e-07
-7.19748e-07
-6.75102e-07
-6.33815e-07
-5.948e-07
-5.5677e-07
-5.18595e-07
-4.79539e-07
-4.39354e-07
-3.98189e-07
-3.56447e-07
-3.14575e-07
-2.7295e-07
-2.31776e-07
-1.91113e-07
-1.50875e-07
-1.109e-07
-7.07386e-08
-3.23944e-08
3.20285e-05
3.20207e-05
3.19999e-05
3.1966e-05
3.19178e-05
3.1852e-05
3.17629e-05
3.16422e-05
3.1478e-05
3.12545e-05
3.09503e-05
3.05381e-05
2.99822e-05
2.92373e-05
2.82461e-05
2.69379e-05
2.52269e-05
2.30128e-05
2.01828e-05
1.66184e-05
1.22068e-05
6.86049e-06
5.44922e-07
-6.68639e-06
-1.46535e-05
-2.3018e-05
-3.1273e-05
-3.87735e-05
-4.48216e-05
-4.88037e-05
-5.03483e-05
-4.9442e-05
-4.64425e-05
-4.19697e-05
-3.67219e-05
-3.13081e-05
-2.6159e-05
-2.15227e-05
-1.75077e-05
-1.41316e-05
-1.13582e-05
-9.12197e-06
-7.34403e-06
-5.9445e-06
-4.85018e-06
-3.99848e-06
-3.33788e-06
-2.8262e-06
-2.42852e-06
-2.11613e-06
-1.86654e-06
-1.66357e-06
-1.49663e-06
-1.35898e-06
-1.24565e-06
-1.15189e-06
-1.07273e-06
-1.0034e-06
-9.40162e-07
-8.80799e-07
-8.24596e-07
-7.71792e-07
-7.22835e-07
-6.77805e-07
-6.36147e-07
-5.9678e-07
-5.5841e-07
-5.19897e-07
-4.805e-07
-4.39982e-07
-3.98512e-07
-3.56521e-07
-3.14482e-07
-2.72786e-07
-2.31643e-07
-1.91099e-07
-1.51053e-07
-1.11317e-07
-7.14026e-08
-3.31676e-08
3.20234e-05
3.20155e-05
3.19946e-05
3.19605e-05
3.1912e-05
3.18458e-05
3.17562e-05
3.16349e-05
3.14701e-05
3.12457e-05
3.09407e-05
3.05274e-05
2.99703e-05
2.92239e-05
2.82312e-05
2.69211e-05
2.5208e-05
2.29915e-05
2.01587e-05
1.6591e-05
1.21756e-05
6.82489e-06
5.04375e-07
-6.73244e-06
-1.47054e-05
-2.3076e-05
-3.13369e-05
-3.88424e-05
-4.48942e-05
-4.8878e-05
-5.04223e-05
-4.95138e-05
-4.65109e-05
-4.20341e-05
-3.67822e-05
-3.13643e-05
-2.62111e-05
-2.15708e-05
-1.75517e-05
-1.41717e-05
-1.13947e-05
-9.15495e-06
-7.37383e-06
-5.97134e-06
-4.87427e-06
-4.02006e-06
-3.35722e-06
-2.84357e-06
-2.44416e-06
-2.13026e-06
-1.87932e-06
-1.67512e-06
-1.50708e-06
-1.36845e-06
-1.25427e-06
-1.15977e-06
-1.07993e-06
-1.00997e-06
-9.46072e-07
-8.86014e-07
-8.29062e-07
-7.75467e-07
-7.25702e-07
-6.79877e-07
-6.37462e-07
-5.97393e-07
-5.58383e-07
-5.19292e-07
-4.79378e-07
-4.38404e-07
-3.96547e-07
-3.54247e-07
-3.11989e-07
-2.70169e-07
-2.28995e-07
-1.88507e-07
-1.48591e-07
-1.09056e-07
-6.94436e-08
-3.17222e-08
3.20077e-05
3.19994e-05
3.19774e-05
3.19416e-05
3.18907e-05
3.18215e-05
3.17282e-05
3.16022e-05
3.14317e-05
3.12006e-05
3.08876e-05
3.04652e-05
2.98978e-05
2.914e-05
2.81347e-05
2.68116e-05
2.50855e-05
2.28569e-05
2.00144e-05
1.6441e-05
1.20261e-05
6.68472e-06
3.84646e-07
-6.81863e-06
-1.47444e-05
-2.30558e-05
-3.12502e-05
-3.86902e-05
-4.46876e-05
-4.86389e-05
-5.01795e-05
-4.92969e-05
-4.63431e-05
-4.19272e-05
-3.67365e-05
-3.13715e-05
-2.6259e-05
-2.16467e-05
-1.76445e-05
-1.42726e-05
-1.14971e-05
-9.25422e-06
-7.46698e-06
-6.05672e-06
-4.95117e-06
-4.08839e-06
-3.41729e-06
-2.89595e-06
-2.48958e-06
-2.16954e-06
-1.9133e-06
-1.70458e-06
-1.53268e-06
-1.39074e-06
-1.27368e-06
-1.17669e-06
-1.09473e-06
-1.02297e-06
-9.57556e-07
-8.96198e-07
-8.38087e-07
-7.83411e-07
-7.32608e-07
-6.85778e-07
-6.42408e-07
-6.0146e-07
-5.61668e-07
-5.21909e-07
-4.8144e-07
-4.40018e-07
-3.9781e-07
-3.55251e-07
-3.12816e-07
-2.70898e-07
-2.29698e-07
-1.89246e-07
-1.49424e-07
-1.10023e-07
-7.05436e-08
-3.27823e-08
3.19817e-05
3.19726e-05
3.19487e-05
3.19098e-05
3.18546e-05
3.17798e-05
3.16794e-05
3.15447e-05
3.13637e-05
3.11201e-05
3.07925e-05
3.03532e-05
2.97667e-05
2.89876e-05
2.79596e-05
2.66127e-05
2.48632e-05
2.26136e-05
1.97549e-05
1.61739e-05
1.17643e-05
6.4458e-06
1.9111e-07
-6.94073e-06
-1.47682e-05
-2.29579e-05
-3.10171e-05
-3.83246e-05
-4.42131e-05
-4.80998e-05
-4.96337e-05
-4.88035e-05
-4.5948e-05
-4.16543e-05
-3.65867e-05
-3.1329e-05
-2.63e-05
-2.17468e-05
-1.77822e-05
-1.44304e-05
-1.16617e-05
-9.41631e-06
-7.62038e-06
-6.19786e-06
-5.07835e-06
-4.20115e-06
-3.51594e-06
-2.98129e-06
-2.56276e-06
-2.23196e-06
-1.96641e-06
-1.74977e-06
-1.57111e-06
-1.42334e-06
-1.30119e-06
-1.19977e-06
-1.114e-06
-1.03904e-06
-9.70994e-07
-9.07468e-07
-8.47521e-07
-7.91212e-07
-7.38883e-07
-6.90594e-07
-6.4584e-07
-6.03617e-07
-5.62703e-07
-5.21998e-07
-4.80769e-07
-4.38759e-07
-3.96111e-07
-3.53231e-07
-3.10573e-07
-2.6851e-07
-2.27228e-07
-1.86754e-07
-1.46964e-07
-1.07658e-07
-6.83813e-08
-3.1083e-08
3.1946e-05
3.19359e-05
3.19091e-05
3.18657e-05
3.18044e-05
3.17215e-05
3.1611e-05
3.14639e-05
3.12679e-05
3.10064e-05
3.06578e-05
3.01944e-05
2.95805e-05
2.87713e-05
2.77108e-05
2.63304e-05
2.45483e-05
2.22697e-05
1.93897e-05
1.58001e-05
1.14009e-05
6.11889e-06
-6.65722e-08
-7.09147e-06
-1.47733e-05
-2.27845e-05
-3.06467e-05
-3.77623e-05
-4.34939e-05
-4.72879e-05
-4.88128e-05
-4.80581e-05
-4.53443e-05
-4.12268e-05
-3.63373e-05
-3.12361e-05
-2.63304e-05
-2.18655e-05
-1.79582e-05
-1.46383e-05
-1.18822e-05
-9.63551e-06
-7.82906e-06
-6.39056e-06
-5.25236e-06
-4.35559e-06
-3.65107e-06
-3.09813e-06
-2.66285e-06
-2.31718e-06
-2.0388e-06
-1.81127e-06
-1.62337e-06
-1.46768e-06
-1.33865e-06
-1.23127e-06
-1.14041e-06
-1.06124e-06
-9.89803e-07
-9.23572e-07
-8.61422e-07
-8.03217e-07
-7.49157e-07
-6.99231e-07
-6.52929e-07
-6.09295e-07
-5.67157e-07
-5.25457e-07
-4.83469e-07
-4.40916e-07
-3.97902e-07
-3.5479e-07
-3.11991e-07
-2.69846e-07
-2.28522e-07
-1.88037e-07
-1.48265e-07
-1.09001e-07
-6.97492e-08
-3.22782e-08
3.19014e-05
3.18899e-05
3.18595e-05
3.18104e-05
3.17412e-05
3.16481e-05
3.15247e-05
3.13617e-05
3.11465e-05
3.08623e-05
3.04871e-05
2.9993e-05
2.93446e-05
2.84973e-05
2.7396e-05
2.59737e-05
2.41511e-05
2.18371e-05
1.89319e-05
1.53339e-05
1.09509e-05
5.71854e-06
-3.75574e-07
-7.2616e-06
-1.47564e-05
-2.25402e-05
-3.01532e-05
-3.70275e-05
-4.25628e-05
-4.62416e-05
-4.77555e-05
-4.70952e-05
-4.45581e-05
-4.06611e-05
-3.59959e-05
-3.10931e-05
-2.63454e-05
-2.19953e-05
-1.81637e-05
-1.48873e-05
-1.21499e-05
-9.90374e-06
-8.08577e-06
-6.62844e-06
-5.46763e-06
-4.54685e-06
-3.81845e-06
-3.24274e-06
-2.78652e-06
-2.42219e-06
-2.12765e-06
-1.88633e-06
-1.6867e-06
-1.52093e-06
-1.38314e-06
-1.26815e-06
-1.17079e-06
-1.0862e-06
-1.01039e-06
-9.40656e-07
-8.75646e-07
-8.14992e-07
-7.58712e-07
-7.06701e-07
-6.5844e-07
-6.13022e-07
-5.69341e-07
-5.26385e-07
-4.83439e-07
-4.402e-07
-3.96724e-07
-3.53311e-07
-3.10314e-07
-2.68032e-07
-2.26608e-07
-1.86048e-07
-1.4623e-07
-1.06962e-07
-6.77994e-08
-3.06615e-08
3.1849e-05
3.18357e-05
3.18011e-05
3.17452e-05
3.16666e-05
3.15614e-05
3.14226e-05
3.12408e-05
3.10028e-05
3.06916e-05
3.02849e-05
2.97546e-05
2.90654e-05
2.81733e-05
2.70244e-05
2.55535e-05
2.36843e-05
2.13303e-05
1.83976e-05
1.47925e-05
1.04321e-05
5.26182e-06
-7.21243e-07
-7.44106e-06
-1.47145e-05
-2.22315e-05
-2.95544e-05
-3.61498e-05
-4.14595e-05
-4.50066e-05
-4.65082e-05
-4.59559e-05
-4.36212e-05
-3.99778e-05
-3.55724e-05
-3.09019e-05
-2.6341e-05
-2.21284e-05
-1.8389e-05
-1.51671e-05
-1.24545e-05
-1.02115e-05
-8.38205e-06
-6.90412e-06
-5.71784e-06
-4.76964e-06
-4.01375e-06
-3.4117e-06
-2.93116e-06
-2.54511e-06
-2.2317e-06
-1.97427e-06
-1.76094e-06
-1.58342e-06
-1.43548e-06
-1.31171e-06
-1.20689e-06
-1.11613e-06
-1.03535e-06
-9.61666e-07
-8.93474e-07
-8.30139e-07
-7.71467e-07
-7.17241e-07
-6.66926e-07
-6.1966e-07
-5.74407e-07
-5.30204e-07
-4.86346e-07
-4.42499e-07
-3.98655e-07
-3.55041e-07
-3.11944e-07
-2.69607e-07
-2.28143e-07
-1.87547e-07
-1.47699e-07
-1.08405e-07
-6.91879e-08
-3.17973e-08
3.17899e-05
3.17747e-05
3.17352e-05
3.16715e-05
3.15824e-05
3.14633e-05
3.13072e-05
3.1104e-05
3.08404e-05
3.04986e-05
3.00564e-05
2.94855e-05
2.87507e-05
2.78087e-05
2.66068e-05
2.50823e-05
2.31624e-05
2.07655e-05
1.78048e-05
1.41951e-05
9.86364e-06
4.76687e-06
-1.08848e-06
-7.62016e-06
-1.4646e-05
-2.18673e-05
-2.88714e-05
-3.51624e-05
-4.02275e-05
-4.36322e-05
-4.51206e-05
-4.46846e-05
-4.25686e-05
-3.92006e-05
-3.50796e-05
-3.06657e-05
-2.63139e-05
-2.22572e-05
-1.86242e-05
-1.54665e-05
-1.27849e-05
-1.05484e-05
-8.70829e-06
-7.20902e-06
-5.99548e-06
-5.01744e-06
-4.23134e-06
-3.6002e-06
-3.09265e-06
-2.68236e-06
-2.34777e-06
-2.07217e-06
-1.84334e-06
-1.65253e-06
-1.49311e-06
-1.35942e-06
-1.24614e-06
-1.14835e-06
-1.06185e-06
-9.83574e-07
-9.11648e-07
-8.45157e-07
-7.83684e-07
-7.26886e-07
-6.74202e-07
-6.24814e-07
-5.77752e-07
-5.32101e-07
-4.87165e-07
-4.42573e-07
-3.98252e-07
-3.54346e-07
-3.11065e-07
-2.68596e-07
-2.27017e-07
-1.86313e-07
-1.46365e-07
-1.06994e-07
-6.77639e-08
-3.05421e-08
3.17255e-05
3.17082e-05
3.16635e-05
3.15913e-05
3.14906e-05
3.13564e-05
3.11814e-05
3.09549e-05
3.06633e-05
3.02885e-05
2.98078e-05
2.91929e-05
2.84089e-05
2.74133e-05
2.61549e-05
2.45737e-05
2.26008e-05
2.01601e-05
1.71722e-05
1.35612e-05
9.26519e-06
4.25162e-06
-1.46291e-06
-7.79047e-06
-1.45508e-05
-2.14584e-05
-2.8127e-05
-3.40999e-05
-3.8911e-05
-4.21685e-05
-4.3643e-05
-4.33268e-05
-4.14365e-05
-3.83548e-05
-3.45319e-05
-3.039e-05
-2.62624e-05
-2.23753e-05
-1.88598e-05
-1.57749e-05
-1.31302e-05
-1.09036e-05
-9.05458e-06
-7.53425e-06
-6.29274e-06
-5.28352e-06
-4.46556e-06
-3.8035e-06
-3.26714e-06
-2.83085e-06
-2.47346e-06
-2.17824e-06
-1.93265e-06
-1.72748e-06
-1.55571e-06
-1.41139e-06
-1.28909e-06
-1.18378e-06
-1.09117e-06
-1.00798e-06
-9.32074e-07
-8.62254e-07
-7.97872e-07
-7.3845e-07
-6.83389e-07
-6.31902e-07
-5.83075e-07
-5.36036e-07
-4.9009e-07
-4.44831e-07
-4.00112e-07
-3.55994e-07
-3.12607e-07
-2.70078e-07
-2.28448e-07
-1.8769e-07
-1.47682e-07
-1.08247e-07
-6.89215e-08
-3.14363e-08
3.16574e-05
3.16379e-05
3.15875e-05
3.15064e-05
3.13933e-05
3.12432e-05
3.10482e-05
3.07972e-05
3.0476e-05
3.00663e-05
2.95452e-05
2.88843e-05
2.8049e-05
2.69977e-05
2.56812e-05
2.4042e-05
2.20155e-05
1.95316e-05
1.65187e-05
1.29103e-05
8.65546e-06
3.73277e-06
-1.83182e-06
-7.94545e-06
-1.44308e-05
-2.10168e-05
-2.73444e-05
-3.29966e-05
-3.75528e-05
-4.06631e-05
-4.21235e-05
-4.1926e-05
-4.02609e-05
-3.74664e-05
-3.39453e-05
-3.00818e-05
-2.61866e-05
-2.24778e-05
-1.90878e-05
-1.60823e-05
-1.34797e-05
-1.12667e-05
-9.41095e-06
-7.87069e-06
-6.60145e-06
-5.56072e-06
-4.71016e-06
-4.01626e-06
-3.45005e-06
-2.98669e-06
-2.60542e-06
-2.28956e-06
-2.02629e-06
-1.80597e-06
-1.62118e-06
-1.46567e-06
-1.33383e-06
-1.22055e-06
-1.12139e-06
-1.03289e-06
-9.52649e-07
-8.79199e-07
-8.11664e-07
-7.49425e-07
-6.91832e-07
-6.38115e-07
-5.87403e-07
-5.38859e-07