/*--------------------------------*- C++ -*----------------------------------*\
| =========                 |                                                 |
| \\      /  F ield         | OpenFOAM: The Open Source CFD Toolbox           |
|  \\    /   O peration     | Version:  2512                                  |
|   \\  /    A nd           | Website:  www.openfoam.com                      |
|    \\/     M anipulation  |                                                 |
\*---------------------------------------------------------------------------*/
FoamFile
{
    version     2.0;
    format      ascii;
    arch        "LSB;label=32;scalar=64";
    class       volScalarField;
    location    "162";
    object      nut;
}
// * * * * * * * * * * * * * * * * * * * * * * * * * * * * * * * * * * * * * //

dimensions      [0 2 -1 0 0 0 0];

internalField   nonuniform List<scalar> 
220594
(
0.000367705
0.00036197
0.000357067
0.000352803
0.000349041
0.000345685
0.000342661
0.000339913
0.000337399
0.000335085
0.000332942
0.00033095
0.000329088
0.000327343
0.000325701
0.000324152
0.000322686
0.000321295
0.000319973
0.000318712
0.000317509
0.000316358
0.000315255
0.000314197
0.00031318
0.000312201
0.000311258
0.000310349
0.00030947
0.000308621
0.000307799
0.000307003
0.000306231
0.000305482
0.000304755
0.000304048
0.000303361
0.000302692
0.000302041
0.000301406
0.000300788
0.000300184
0.000299595
0.00029902
0.000298458
0.000297909
0.000297372
0.000296846
0.000296332
0.000295829
0.000295335
0.000294852
0.000294378
0.000293913
0.000293458
0.000293011
0.000292572
0.00029214
0.000291717
0.000291301
0.000290893
0.000290491
0.000290096
0.000289707
0.000289325
0.000288949
0.000288579
0.000288214
0.000287855
0.000287502
0.000287154
0.000286811
0.000286473
0.00028614
0.000285812
0.000285488
0.000285168
0.000284853
0.000284543
0.000284252
0.000367705
0.00036197
0.000357067
0.000352803
0.000349041
0.000345685
0.000342661
0.000339913
0.000337399
0.000335085
0.000332942
0.00033095
0.000329088
0.000327343
0.000325701
0.000324152
0.000322686
0.000321295
0.000319973
0.000318712
0.000317509
0.000316358
0.000315255
0.000314197
0.00031318
0.000312201
0.000311258
0.000310348
0.00030947
0.00030862
0.000307799
0.000307002
0.000306231
0.000305482
0.000304754
0.000304048
0.00030336
0.000302692
0.00030204
0.000301406
0.000300787
0.000300184
0.000299595
0.000299019
0.000298458
0.000297908
0.000297371
0.000296846
0.000296331
0.000295828
0.000295335
0.000294851
0.000294377
0.000293913
0.000293457
0.00029301
0.000292571
0.00029214
0.000291717
0.000291301
0.000290892
0.00029049
0.000290095
0.000289707
0.000289324
0.000288948
0.000288578
0.000288214
0.000287855
0.000287502
0.000287153
0.00028681
0.000286473
0.000286139
0.000285811
0.000285487
0.000285168
0.000284853
0.000284543
0.000284251
0.000367705
0.00036197
0.000357067
0.000352803
0.000349041
0.000345685
0.000342661
0.000339913
0.000337399
0.000335085
0.000332942
0.00033095
0.000329088
0.000327343
0.000325701
0.000324152
0.000322686
0.000321295
0.000319973
0.000318712
0.000317509
0.000316358
0.000315255
0.000314197
0.00031318
0.000312201
0.000311258
0.000310348
0.000309469
0.00030862
0.000307798
0.000307002
0.00030623
0.000305481
0.000304754
0.000304047
0.00030336
0.000302691
0.000302039
0.000301405
0.000300786
0.000300183
0.000299594
0.000299019
0.000298457
0.000297907
0.00029737
0.000296845
0.000296331
0.000295827
0.000295334
0.00029485
0.000294377
0.000293912
0.000293456
0.000293009
0.00029257
0.000292139
0.000291716
0.0002913
0.000290891
0.000290489
0.000290094
0.000289706
0.000289323
0.000288947
0.000288577
0.000288213
0.000287854
0.000287501
0.000287153
0.00028681
0.000286472
0.000286138
0.00028581
0.000285486
0.000285167
0.000284852
0.000284542
0.000284251
0.000367705
0.00036197
0.000357067
0.000352803
0.000349041
0.000345685
0.000342661
0.000339913
0.000337399
0.000335085
0.000332942
0.00033095
0.000329088
0.000327343
0.000325701
0.000324152
0.000322686
0.000321295
0.000319972
0.000318712
0.000317509
0.000316358
0.000315255
0.000314196
0.000313179
0.000312201
0.000311257
0.000310348
0.000309469
0.00030862
0.000307798
0.000307001
0.000306229
0.00030548
0.000304753
0.000304046
0.000303359
0.00030269
0.000302039
0.000301404
0.000300785
0.000300182
0.000299593
0.000299017
0.000298456
0.000297906
0.000297369
0.000296844
0.000296329
0.000295826
0.000295333
0.000294849
0.000294375
0.000293911
0.000293455
0.000293008
0.000292569
0.000292138
0.000291714
0.000291298
0.00029089
0.000290488
0.000290093
0.000289704
0.000289322
0.000288946
0.000288576
0.000288212
0.000287853
0.000287499
0.000287151
0.000286808
0.00028647
0.000286137
0.000285809
0.000285485
0.000285166
0.000284851
0.00028454
0.000284249
0.000367705
0.00036197
0.000357067
0.000352803
0.000349041
0.000345685
0.000342661
0.000339913
0.000337399
0.000335085
0.000332942
0.00033095
0.000329088
0.000327343
0.000325701
0.000324152
0.000322686
0.000321295
0.000319972
0.000318712
0.000317509
0.000316358
0.000315255
0.000314196
0.000313179
0.0003122
0.000311257
0.000310347
0.000309469
0.000308619
0.000307797
0.000307001
0.000306229
0.00030548
0.000304752
0.000304045
0.000303358
0.000302689
0.000302038
0.000301403
0.000300784
0.000300181
0.000299592
0.000299016
0.000298454
0.000297905
0.000297368
0.000296842
0.000296328
0.000295825
0.000295331
0.000294848
0.000294374
0.000293909
0.000293454
0.000293006
0.000292567
0.000292136
0.000291713
0.000291297
0.000290888
0.000290487
0.000290092
0.000289703
0.000289321
0.000288945
0.000288575
0.00028821
0.000287851
0.000287498
0.00028715
0.000286807
0.000286469
0.000286136
0.000285807
0.000285484
0.000285164
0.000284849
0.000284539
0.000284248
0.000367705
0.00036197
0.000357067
0.000352803
0.000349041
0.000345685
0.000342661
0.000339913
0.000337399
0.000335085
0.000332942
0.00033095
0.000329088
0.000327343
0.000325701
0.000324152
0.000322686
0.000321295
0.000319972
0.000318712
0.000317508
0.000316357
0.000315254
0.000314196
0.000313179
0.0003122
0.000311257
0.000310347
0.000309468
0.000308618
0.000307796
0.000307
0.000306228
0.000305479
0.000304751
0.000304044
0.000303357
0.000302688
0.000302036
0.000301402
0.000300783
0.000300179
0.00029959
0.000299015
0.000298453
0.000297904
0.000297367
0.000296841
0.000296327
0.000295823
0.00029533
0.000294846
0.000294373
0.000293908
0.000293452
0.000293005
0.000292566
0.000292135
0.000291712
0.000291296
0.000290887
0.000290485
0.00029009
0.000289702
0.000289319
0.000288943
0.000288573
0.000288209
0.00028785
0.000287497
0.000287148
0.000286805
0.000286468
0.000286134
0.000285806
0.000285482
0.000285163
0.000284848
0.000284538
0.000284246
0.000367705
0.00036197
0.000357067
0.000352803
0.000349041
0.000345685
0.000342661
0.000339913
0.000337399
0.000335085
0.000332942
0.00033095
0.000329088
0.000327343
0.000325701
0.000324152
0.000322686
0.000321295
0.000319972
0.000318712
0.000317508
0.000316357
0.000315254
0.000314196
0.000313178
0.000312199
0.000311256
0.000310346
0.000309467
0.000308618
0.000307796
0.000306999
0.000306227
0.000305478
0.00030475
0.000304043
0.000303356
0.000302687
0.000302035
0.000301401
0.000300782
0.000300178
0.000299589
0.000299014
0.000298452
0.000297902
0.000297365
0.00029684
0.000296325
0.000295822
0.000295328
0.000294845
0.000294371
0.000293907
0.000293451
0.000293003
0.000292564
0.000292133
0.00029171
0.000291294
0.000290885
0.000290484
0.000290089
0.0002897
0.000289318
0.000288942
0.000288572
0.000288207
0.000287848
0.000287495
0.000287147
0.000286804
0.000286466
0.000286133
0.000285804
0.000285481
0.000285161
0.000284846
0.000284536
0.000284245
0.000367705
0.00036197
0.000357067
0.000352803
0.000349041
0.000345685
0.000342661
0.000339913
0.000337399
0.000335085
0.000332942
0.000330949
0.000329088
0.000327343
0.000325701
0.000324152
0.000322686
0.000321295
0.000319972
0.000318712
0.000317508
0.000316357
0.000315254
0.000314195
0.000313178
0.000312199
0.000311256
0.000310346
0.000309467
0.000308617
0.000307795
0.000306998
0.000306226
0.000305477
0.000304749
0.000304042
0.000303355
0.000302686
0.000302034
0.000301399
0.00030078
0.000300177
0.000299588
0.000299012
0.00029845
0.000297901
0.000297364
0.000296838
0.000296324
0.00029582
0.000295327
0.000294843
0.00029437
0.000293905
0.000293449
0.000293002
0.000292563
0.000292132
0.000291708
0.000291293
0.000290884
0.000290482
0.000290087
0.000289698
0.000289316
0.00028894
0.00028857
0.000288205
0.000287847
0.000287493
0.000287145
0.000286802
0.000286464
0.000286131
0.000285803
0.000285479
0.000285159
0.000284844
0.000284534
0.000284243
0.000367705
0.00036197
0.000357067
0.000352803
0.000349041
0.000345685
0.000342661
0.000339913
0.000337399
0.000335085
0.000332942
0.000330949
0.000329088
0.000327343
0.000325701
0.000324152
0.000322686
0.000321295
0.000319972
0.000318711
0.000317508
0.000316357
0.000315254
0.000314195
0.000313178
0.000312199
0.000311255
0.000310345
0.000309466
0.000308616
0.000307794
0.000306998
0.000306225
0.000305476
0.000304748
0.000304041
0.000303353
0.000302684
0.000302033
0.000301398
0.000300779
0.000300175
0.000299586
0.000299011
0.000298449
0.000297899
0.000297362
0.000296837
0.000296322
0.000295819
0.000295325
0.000294842
0.000294368
0.000293903
0.000293447
0.000293
0.000292561
0.00029213
0.000291707
0.000291291
0.000290882
0.00029048
0.000290085
0.000289697
0.000289314
0.000288938
0.000288568
0.000288204
0.000287845
0.000287491
0.000287143
0.0002868
0.000286462
0.000286129
0.000285801
0.000285477
0.000285158
0.000284843
0.000284532
0.000284241
0.000367705
0.00036197
0.000357067
0.000352803
0.000349041
0.000345685
0.000342661
0.000339913
0.000337399
0.000335085
0.000332942
0.000330949
0.000329088
0.000327343
0.000325701
0.000324152
0.000322686
0.000321295
0.000319972
0.000318711
0.000317508
0.000316356
0.000315253
0.000314195
0.000313177
0.000312198
0.000311255
0.000310345
0.000309466
0.000308616
0.000307793
0.000306997
0.000306224
0.000305475
0.000304747
0.00030404
0.000303352
0.000302683
0.000302031
0.000301396
0.000300778
0.000300174
0.000299585
0.000299009
0.000298447
0.000297898
0.00029736
0.000296835
0.00029632
0.000295817
0.000295323
0.00029484
0.000294366
0.000293901
0.000293446
0.000292998
0.000292559
0.000292128
0.000291705
0.000291289
0.00029088
0.000290478
0.000290083
0.000289695
0.000289312
0.000288936
0.000288566
0.000288202
0.000287843
0.00028749
0.000287141
0.000286798
0.00028646
0.000286127
0.000285799
0.000285475
0.000285156
0.000284841
0.00028453
0.000284239
0.000367705
0.00036197
0.000357067
0.000352803
0.000349041
0.000345685
0.000342661
0.000339913
0.000337399
0.000335085
0.000332942
0.000330949
0.000329088
0.000327343
0.000325701
0.000324152
0.000322685
0.000321294
0.000319972
0.000318711
0.000317508
0.000316356
0.000315253
0.000314194
0.000313177
0.000312198
0.000311254
0.000310344
0.000309465
0.000308615
0.000307792
0.000306996
0.000306223
0.000305474
0.000304746
0.000304039
0.000303351
0.000302682
0.00030203
0.000301395
0.000300776
0.000300172
0.000299583
0.000299008
0.000298445
0.000297896
0.000297359
0.000296833
0.000296319
0.000295815
0.000295322
0.000294838
0.000294364
0.0002939
0.000293444
0.000292997
0.000292558
0.000292126
0.000291703
0.000291287
0.000290878
0.000290477
0.000290081
0.000289693
0.000289311
0.000288934
0.000288564
0.0002882
0.000287841
0.000287488
0.000287139
0.000286796
0.000286458
0.000286125
0.000285797
0.000285473
0.000285154
0.000284839
0.000284528
0.000284237
0.000367705
0.00036197
0.000357067
0.000352803
0.000349041
0.000345685
0.000342661
0.000339913
0.000337399
0.000335085
0.000332942
0.000330949
0.000329088
0.000327343
0.000325701
0.000324152
0.000322685
0.000321294
0.000319972
0.000318711
0.000317507
0.000316356
0.000315253
0.000314194
0.000313177
0.000312197
0.000311254
0.000310343
0.000309464
0.000308614
0.000307792
0.000306995
0.000306222
0.000305473
0.000304745
0.000304037
0.00030335
0.00030268
0.000302029
0.000301394
0.000300774
0.000300171
0.000299581
0.000299006
0.000298444
0.000297894
0.000297357
0.000296831
0.000296317
0.000295813
0.00029532
0.000294837
0.000294363
0.000293898
0.000293442
0.000292995
0.000292556
0.000292125
0.000291701
0.000291285
0.000290876
0.000290475
0.00029008
0.000289691
0.000289309
0.000288933
0.000288562
0.000288198
0.000287839
0.000287486
0.000287138
0.000286795
0.000286457
0.000286123
0.000285795
0.000285471
0.000285152
0.000284837
0.000284526
0.000284235
0.000367705
0.00036197
0.000357067
0.000352803
0.000349041
0.000345685
0.000342661
0.000339913
0.000337399
0.000335085
0.000332942
0.000330949
0.000329088
0.000327343
0.000325701
0.000324152
0.000322685
0.000321294
0.000319971
0.000318711
0.000317507
0.000316356
0.000315253
0.000314194
0.000313176
0.000312197
0.000311253
0.000310343
0.000309464
0.000308614
0.000307791
0.000306994
0.000306221
0.000305472
0.000304744
0.000304036
0.000303348
0.000302679
0.000302027
0.000301392
0.000300773
0.000300169
0.00029958
0.000299004
0.000298442
0.000297893
0.000297355
0.00029683
0.000296315
0.000295812
0.000295318
0.000294835
0.000294361
0.000293896
0.00029344
0.000292993
0.000292554
0.000292123
0.000291699
0.000291283
0.000290875
0.000290473
0.000290078
0.000289689
0.000289307
0.000288931
0.000288561
0.000288196
0.000287837
0.000287484
0.000287136
0.000286793
0.000286455
0.000286121
0.000285793
0.000285469
0.00028515
0.000284835
0.000284524
0.000284233
0.000367705
0.00036197
0.000357067
0.000352803
0.000349041
0.000345685
0.000342661
0.000339913
0.000337399
0.000335085
0.000332942
0.000330949
0.000329088
0.000327343
0.000325701
0.000324151
0.000322685
0.000321294
0.000319971
0.000318711
0.000317507
0.000316356
0.000315252
0.000314193
0.000313176
0.000312196
0.000311253
0.000310342
0.000309463
0.000308613
0.00030779
0.000306993
0.00030622
0.000305471
0.000304743
0.000304035
0.000303347
0.000302678
0.000302026
0.000301391
0.000300772
0.000300168
0.000299578
0.000299003
0.000298441
0.000297891
0.000297354
0.000296828
0.000296314
0.00029581
0.000295317
0.000294833
0.000294359
0.000293894
0.000293439
0.000292991
0.000292552
0.000292121
0.000291698
0.000291282
0.000290873
0.000290471
0.000290076
0.000289687
0.000289305
0.000288929
0.000288559
0.000288194
0.000287835
0.000287482
0.000287134
0.000286791
0.000286453
0.00028612
0.000285791
0.000285467
0.000285148
0.000284833
0.000284523
0.000284231
0.000367705
0.00036197
0.000357067
0.000352803
0.000349041
0.000345685
0.000342661
0.000339913
0.000337399
0.000335085
0.000332942
0.000330949
0.000329088
0.000327343
0.000325701
0.000324151
0.000322685
0.000321294
0.000319971
0.000318711
0.000317507
0.000316355
0.000315252
0.000314193
0.000313176
0.000312196
0.000311252
0.000310342
0.000309462
0.000308612
0.000307789
0.000306992
0.00030622
0.00030547
0.000304742
0.000304034
0.000303346
0.000302677
0.000302025
0.000301389
0.00030077
0.000300166
0.000299577
0.000299001
0.000298439
0.00029789
0.000297352
0.000296827
0.000296312
0.000295809
0.000295315
0.000294832
0.000294358
0.000293893
0.000293437
0.00029299
0.000292551
0.00029212
0.000291696
0.00029128
0.000290871
0.000290469
0.000290074
0.000289686
0.000289303
0.000288927
0.000288557
0.000288193
0.000287834
0.00028748
0.000287132
0.000286789
0.000286451
0.000286118
0.000285789
0.000285466
0.000285146
0.000284831
0.000284521
0.00028423
0.000367705
0.00036197
0.000357067
0.000352803
0.000349041
0.000345685
0.000342661
0.000339913
0.000337399
0.000335085
0.000332942
0.000330949
0.000329088
0.000327343
0.000325701
0.000324151
0.000322685
0.000321294
0.000319971
0.000318711
0.000317507
0.000316355
0.000315252
0.000314193
0.000313175
0.000312196
0.000311252
0.000310341
0.000309462
0.000308612
0.000307789
0.000306992
0.000306219
0.000305469
0.000304741
0.000304033
0.000303345
0.000302675
0.000302023
0.000301388
0.000300769
0.000300165
0.000299576
0.000299
0.000298438
0.000297888
0.000297351
0.000296825
0.000296311
0.000295807
0.000295314
0.00029483
0.000294356
0.000293892
0.000293436
0.000292988
0.000292549
0.000292118
0.000291695
0.000291279
0.00029087
0.000290468
0.000290073
0.000289684
0.000289302
0.000288926
0.000288556
0.000288191
0.000287832
0.000287479
0.000287131
0.000286788
0.00028645
0.000286116
0.000285788
0.000285464
0.000285145
0.00028483
0.000284519
0.000284228
0.000367705
0.00036197
0.000357067
0.000352803
0.000349041
0.000345685
0.000342661
0.000339913
0.000337399
0.000335085
0.000332942
0.000330949
0.000329088
0.000327343
0.000325701
0.000324151
0.000322685
0.000321294
0.000319971
0.00031871
0.000317507
0.000316355
0.000315252
0.000314193
0.000313175
0.000312195
0.000311252
0.000310341
0.000309461
0.000308611
0.000307788
0.000306991
0.000306218
0.000305468
0.00030474
0.000304032
0.000303344
0.000302675
0.000302023
0.000301387
0.000300768
0.000300164
0.000299575
0.000298999
0.000298437
0.000297887
0.00029735
0.000296824
0.00029631
0.000295806
0.000295313
0.000294829
0.000294355
0.00029389
0.000293434
0.000292987
0.000292548
0.000292117
0.000291693
0.000291277
0.000290869
0.000290467
0.000290072
0.000289683
0.000289301
0.000288924
0.000288554
0.00028819
0.000287831
0.000287477
0.000287129
0.000286786
0.000286448
0.000286115
0.000285787
0.000285463
0.000285143
0.000284828
0.000284518
0.000284227
0.000367705
0.00036197
0.000357067
0.000352803
0.000349041
0.000345685
0.000342661
0.000339913
0.000337399
0.000335085
0.000332942
0.000330949
0.000329088
0.000327343
0.000325701
0.000324151
0.000322685
0.000321294
0.000319971
0.00031871
0.000317507
0.000316355
0.000315252
0.000314193
0.000313175
0.000312195
0.000311251
0.000310341
0.000309461
0.000308611
0.000307788
0.000306991
0.000306218
0.000305468
0.000304739
0.000304032
0.000303343
0.000302674
0.000302022
0.000301387
0.000300767
0.000300163
0.000299574
0.000298998
0.000298436
0.000297886
0.000297349
0.000296823
0.000296309
0.000295805
0.000295312
0.000294828
0.000294354
0.000293889
0.000293433
0.000292986
0.000292547
0.000292116
0.000291692
0.000291276
0.000290868
0.000290466
0.000290071
0.000289682
0.0002893
0.000288923
0.000288553
0.000288189
0.00028783
0.000287476
0.000287128
0.000286785
0.000286447
0.000286114
0.000285785
0.000285462
0.000285142
0.000284827
0.000284517
0.000284226
0.000367705
0.00036197
0.000357067
0.000352803
0.000349041
0.000345685
0.000342661
0.000339913
0.000337399
0.000335085
0.000332942
0.000330949
0.000329088
0.000327343
0.000325701
0.000324151
0.000322685
0.000321294
0.000319971
0.00031871
0.000317507
0.000316355
0.000315252
0.000314193
0.000313175
0.000312195
0.000311251
0.00031034
0.000309461
0.00030861
0.000307787
0.00030699
0.000306217
0.000305467
0.000304739
0.000304031
0.000303343
0.000302673
0.000302021
0.000301386
0.000300767
0.000300163
0.000299573
0.000298998
0.000298435
0.000297886
0.000297348
0.000296823
0.000296308
0.000295804
0.000295311
0.000294827
0.000294353
0.000293889
0.000293433
0.000292985
0.000292546
0.000292115
0.000291692
0.000291276
0.000290867
0.000290465
0.00029007
0.000289681
0.000289299
0.000288923
0.000288553
0.000288188
0.000287829
0.000287476
0.000287128
0.000286785
0.000286446
0.000286113
0.000285785
0.000285461
0.000285141
0.000284826
0.000284516
0.000284225
0.000367705
0.00036197
0.000357067
0.000352803
0.000349041
0.000345685
0.000342661
0.000339913
0.000337399
0.000335085
0.000332942
0.000330949
0.000329088
0.000327343
0.000325701
0.000324151
0.000322685
0.000321294
0.000319971
0.00031871
0.000317507
0.000316355
0.000315251
0.000314192
0.000313175
0.000312195
0.000311251
0.00031034
0.000309461
0.00030861
0.000307787
0.00030699
0.000306217
0.000305467
0.000304739
0.000304031
0.000303343
0.000302673
0.000302021
0.000301386
0.000300766
0.000300162
0.000299573
0.000298997
0.000298435
0.000297886
0.000297348
0.000296822
0.000296308
0.000295804
0.000295311
0.000294827
0.000294353
0.000293888
0.000293432
0.000292985
0.000292546
0.000292115
0.000291691
0.000291275
0.000290867
0.000290465
0.00029007
0.000289681
0.000289299
0.000288922
0.000288552
0.000288188
0.000287829
0.000287475
0.000287127
0.000286784
0.000286446
0.000286113
0.000285784
0.00028546
0.000285141
0.000284826
0.000284516
0.000284224
0.000367705
0.00036197
0.000357067
0.000352803
0.000349041
0.000345685
0.000342661
0.000339913
0.000337399
0.000335085
0.000332942
0.000330949
0.000329088
0.000327343
0.000325701
0.000324151
0.000322685
0.000321294
0.000319971
0.00031871
0.000317507
0.000316355
0.000315251
0.000314192
0.000313175
0.000312195
0.000311251
0.00031034
0.000309461
0.00030861
0.000307787
0.00030699
0.000306217
0.000305467
0.000304739
0.000304031
0.000303343
0.000302673
0.000302021
0.000301386
0.000300766
0.000300162
0.000299573
0.000298997
0.000298435
0.000297886
0.000297348
0.000296822
0.000296308
0.000295804
0.000295311
0.000294827
0.000294353
0.000293888
0.000293432
0.000292985
0.000292546
0.000292115
0.000291691
0.000291275
0.000290867
0.000290465
0.00029007
0.000289681
0.000289299
0.000288922
0.000288552
0.000288188
0.000287829
0.000287475
0.000287127
0.000286784
0.000286446
0.000286113
0.000285784
0.000285461
0.000285141
0.000284826
0.000284516
0.000284224
0.000367705
0.00036197
0.000357067
0.000352803
0.000349041
0.000345685
0.000342661
0.000339913
0.000337399
0.000335085
0.000332942
0.000330949
0.000329088
0.000327343
0.000325701
0.000324151
0.000322685
0.000321294
0.000319971
0.00031871
0.000317507
0.000316355
0.000315252
0.000314193
0.000313175
0.000312195
0.000311251
0.00031034
0.000309461
0.00030861
0.000307787
0.00030699
0.000306217
0.000305467
0.000304739
0.000304031
0.000303343
0.000302673
0.000302021
0.000301386
0.000300767
0.000300163
0.000299573
0.000298998
0.000298435
0.000297886
0.000297348
0.000296823
0.000296308
0.000295804
0.000295311
0.000294827
0.000294354
0.000293889
0.000293433
0.000292985
0.000292546
0.000292115
0.000291692
0.000291276
0.000290867
0.000290465
0.00029007
0.000289681
0.000289299
0.000288923
0.000288553
0.000288188
0.000287829
0.000287476
0.000287128
0.000286785
0.000286446
0.000286113
0.000285785
0.000285461
0.000285141
0.000284826
0.000284516
0.000284225
0.000367705
0.00036197
0.000357067
0.000352803
0.000349041
0.000345685
0.000342661
0.000339913
0.000337399
0.000335085
0.000332942
0.000330949
0.000329088
0.000327343
0.000325701
0.000324151
0.000322685
0.000321294
0.000319971
0.00031871
0.000317507
0.000316355
0.000315252
0.000314193
0.000313175
0.000312195
0.000311251
0.000310341
0.000309461
0.000308611
0.000307788
0.000306991
0.000306218
0.000305468
0.000304739
0.000304032
0.000303343
0.000302674
0.000302022
0.000301387
0.000300767
0.000300163
0.000299574
0.000298998
0.000298436
0.000297886
0.000297349
0.000296823
0.000296309
0.000295805
0.000295312
0.000294828
0.000294354
0.000293889
0.000293434
0.000292986
0.000292547
0.000292116
0.000291692
0.000291276
0.000290868
0.000290466
0.000290071
0.000289682
0.0002893
0.000288924
0.000288553
0.000288189
0.00028783
0.000287476
0.000287128
0.000286785
0.000286447
0.000286114
0.000285786
0.000285462
0.000285142
0.000284827
0.000284517
0.000284226
0.000367705
0.00036197
0.000357067
0.000352803
0.000349041
0.000345685
0.000342661
0.000339913
0.000337399
0.000335085
0.000332942
0.000330949
0.000329088
0.000327343
0.000325701
0.000324151
0.000322685
0.000321294
0.000319971
0.00031871
0.000317507
0.000316355
0.000315252
0.000314193
0.000313175
0.000312195
0.000311252
0.000310341
0.000309461
0.000308611
0.000307788
0.000306991
0.000306218
0.000305468
0.00030474
0.000304032
0.000303344
0.000302675
0.000302023
0.000301387
0.000300768
0.000300164
0.000299575
0.000298999
0.000298437
0.000297887
0.00029735
0.000296824
0.00029631
0.000295806
0.000295313
0.000294829
0.000294355
0.00029389
0.000293434
0.000292987
0.000292548
0.000292117
0.000291693
0.000291277
0.000290869
0.000290467
0.000290072
0.000289683
0.000289301
0.000288925
0.000288554
0.00028819
0.000287831
0.000287478
0.000287129
0.000286786
0.000286448
0.000286115
0.000285787
0.000285463
0.000285143
0.000284828
0.000284518
0.000284227
0.000367705
0.00036197
0.000357067
0.000352803
0.000349041
0.000345685
0.000342661
0.000339913
0.000337399
0.000335085
0.000332942
0.000330949
0.000329088
0.000327343
0.000325701
0.000324151
0.000322685
0.000321294
0.000319971
0.000318711
0.000317507
0.000316355
0.000315252
0.000314193
0.000313175
0.000312196
0.000311252
0.000310341
0.000309462
0.000308612
0.000307789
0.000306992
0.000306219
0.000305469
0.000304741
0.000304033
0.000303345
0.000302675
0.000302023
0.000301388
0.000300769
0.000300165
0.000299576
0.000299
0.000298438
0.000297888
0.000297351
0.000296825
0.000296311
0.000295807
0.000295314
0.00029483
0.000294356
0.000293892
0.000293436
0.000292988
0.000292549
0.000292118
0.000291695
0.000291279
0.00029087
0.000290468
0.000290073
0.000289684
0.000289302
0.000288926
0.000288556
0.000288191
0.000287832
0.000287479
0.000287131
0.000286788
0.00028645
0.000286116
0.000285788
0.000285464
0.000285145
0.00028483
0.000284519
0.000284228
0.000367705
0.00036197
0.000357067
0.000352803
0.000349041
0.000345685
0.000342661
0.000339913
0.000337399
0.000335085
0.000332942
0.000330949
0.000329088
0.000327343
0.000325701
0.000324151
0.000322685
0.000321294
0.000319971
0.000318711
0.000317507
0.000316355
0.000315252
0.000314193
0.000313176
0.000312196
0.000311252
0.000310342
0.000309462
0.000308612
0.000307789
0.000306992
0.00030622
0.00030547
0.000304742
0.000304034
0.000303346
0.000302677
0.000302025
0.000301389
0.00030077
0.000300166
0.000299577
0.000299002
0.000298439
0.00029789
0.000297352
0.000296827
0.000296312
0.000295809
0.000295315
0.000294832
0.000294358
0.000293893
0.000293437
0.00029299
0.000292551
0.00029212
0.000291696
0.00029128
0.000290871
0.00029047
0.000290074
0.000289686
0.000289303
0.000288927
0.000288557
0.000288193
0.000287834
0.00028748
0.000287132
0.000286789
0.000286451
0.000286118
0.000285789
0.000285466
0.000285146
0.000284831
0.000284521
0.00028423
0.000367705
0.00036197
0.000357067
0.000352803
0.000349041
0.000345685
0.000342661
0.000339913
0.000337399
0.000335085
0.000332942
0.000330949
0.000329088
0.000327343
0.000325701
0.000324151
0.000322685
0.000321294
0.000319971
0.000318711
0.000317507
0.000316356
0.000315252
0.000314193
0.000313176
0.000312196
0.000311253
0.000310342
0.000309463
0.000308613
0.00030779
0.000306993
0.00030622
0.000305471
0.000304743
0.000304035
0.000303347
0.000302678
0.000302026
0.000301391
0.000300772
0.000300168
0.000299578
0.000299003
0.000298441
0.000297891
0.000297354
0.000296828
0.000296314
0.00029581
0.000295317
0.000294833
0.000294359
0.000293895
0.000293439
0.000292991
0.000292552
0.000292121
0.000291698
0.000291282
0.000290873
0.000290471
0.000290076
0.000289687
0.000289305
0.000288929
0.000288559
0.000288194
0.000287835
0.000287482
0.000287134
0.000286791
0.000286453
0.00028612
0.000285791
0.000285467
0.000285148
0.000284833
0.000284523
0.000284231
0.000367705
0.00036197
0.000357067
0.000352803
0.000349041
0.000345685
0.000342661
0.000339913
0.000337399
0.000335085
0.000332942
0.000330949
0.000329088
0.000327343
0.000325701
0.000324152
0.000322685
0.000321294
0.000319971
0.000318711
0.000317507
0.000316356
0.000315253
0.000314194
0.000313176
0.000312197
0.000311253
0.000310343
0.000309464
0.000308614
0.000307791
0.000306994
0.000306221
0.000305472
0.000304744
0.000304036
0.000303348
0.000302679
0.000302027
0.000301392
0.000300773
0.000300169
0.00029958
0.000299004
0.000298442
0.000297893
0.000297356
0.00029683
0.000296315
0.000295812
0.000295318
0.000294835
0.000294361
0.000293896
0.00029344
0.000292993
0.000292554
0.000292123
0.0002917
0.000291284
0.000290875
0.000290473
0.000290078
0.000289689
0.000289307
0.000288931
0.000288561
0.000288196
0.000287837
0.000287484
0.000287136
0.000286793
0.000286455
0.000286122
0.000285793
0.000285469
0.00028515
0.000284835
0.000284524
0.000284233
0.000367705
0.00036197
0.000357067
0.000352803
0.000349041
0.000345685
0.000342661
0.000339913
0.000337399
0.000335085
0.000332942
0.000330949
0.000329088
0.000327343
0.000325701
0.000324152
0.000322685
0.000321294
0.000319972
0.000318711
0.000317507
0.000316356
0.000315253
0.000314194
0.000313177
0.000312197
0.000311254
0.000310343
0.000309464
0.000308614
0.000307792
0.000306995
0.000306222
0.000305473
0.000304745
0.000304037
0.00030335
0.00030268
0.000302029
0.000301394
0.000300775
0.000300171
0.000299581
0.000299006
0.000298444
0.000297894
0.000297357
0.000296832
0.000296317
0.000295813
0.00029532
0.000294837
0.000294363
0.000293898
0.000293442
0.000292995
0.000292556
0.000292125
0.000291701
0.000291285
0.000290877
0.000290475
0.00029008
0.000289691
0.000289309
0.000288933
0.000288562
0.000288198
0.000287839
0.000287486
0.000287138
0.000286795
0.000286457
0.000286123
0.000285795
0.000285471
0.000285152
0.000284837
0.000284526
0.000284235
0.000367705
0.00036197
0.000357067
0.000352803
0.000349041
0.000345685
0.000342661
0.000339913
0.000337399
0.000335085
0.000332942
0.000330949
0.000329088
0.000327343
0.000325701
0.000324152
0.000322685
0.000321294
0.000319972
0.000318711
0.000317508
0.000316356
0.000315253
0.000314194
0.000313177
0.000312198
0.000311254
0.000310344
0.000309465
0.000308615
0.000307792
0.000306996
0.000306223
0.000305474
0.000304746
0.000304039
0.000303351
0.000302682
0.00030203
0.000301395
0.000300776
0.000300172
0.000299583
0.000299008
0.000298446
0.000297896
0.000297359
0.000296833
0.000296319
0.000295815
0.000295322
0.000294838
0.000294364
0.0002939
0.000293444
0.000292997
0.000292558
0.000292127
0.000291703
0.000291287
0.000290878
0.000290477
0.000290082
0.000289693
0.000289311
0.000288935
0.000288564
0.0002882
0.000287841
0.000287488
0.00028714
0.000286797
0.000286459
0.000286125
0.000285797
0.000285473
0.000285154
0.000284839
0.000284528
0.000284237
0.000367705
0.00036197
0.000357067
0.000352803
0.000349041
0.000345685
0.000342661
0.000339913
0.000337399
0.000335085
0.000332942
0.000330949
0.000329088
0.000327343
0.000325701
0.000324152
0.000322686
0.000321295
0.000319972
0.000318711
0.000317508
0.000316356
0.000315253
0.000314195
0.000313177
0.000312198
0.000311255
0.000310345
0.000309466
0.000308616
0.000307793
0.000306997
0.000306224
0.000305475
0.000304747
0.00030404
0.000303352
0.000302683
0.000302031
0.000301397
0.000300778
0.000300174
0.000299585