/*--------------------------------*- C++ -*----------------------------------*\
| =========                 |                                                 |
| \\      /  F ield         | OpenFOAM: The Open Source CFD Toolbox           |
|  \\    /   O peration     | Version:  2512                                  |
|   \\  /    A nd           | Website:  www.openfoam.com                      |
|    \\/     M anipulation  |                                                 |
\*---------------------------------------------------------------------------*/
FoamFile
{
    version     2.0;
    format      ascii;
    arch        "LSB;label=32;scalar=64";
    class       volScalarField;
    location    "162";
    object      omega;
}
// * * * * * * * * * * * * * * * * * * * * * * * * * * * * * * * * * * * * * //

dimensions      [0 0 -1 0 0 0 0];

internalField   nonuniform List<scalar> 
220594
(
8.07067
6.69608
5.69885
4.94658
4.36122
3.89414
3.51361
3.19816
2.93275
2.7066
2.51176
2.34227
2.19357
2.06213
1.94514
1.8404
1.74609
1.66076
1.58321
1.51242
1.44757
1.38794
1.33294
1.28205
1.23484
1.19092
1.14997
1.11169
1.07585
1.0422
1.01057
0.980771
0.952655
0.926084
0.900936
0.877099
0.854475
0.832974
0.812515
0.793025
0.774437
0.75669
0.73973
0.723504
0.707968
0.693077
0.678793
0.665081
0.651905
0.639237
0.627046
0.615307
0.603996
0.593089
0.582566
0.572406
0.562592
0.553105
0.54393
0.535052
0.526457
0.518132
0.510063
0.50224
0.494652
0.487287
0.480137
0.473193
0.466445
0.459885
0.453506
0.4473
0.44126
0.435381
0.429654
0.424076
0.41864
0.41334
0.408173
0.403207
8.07067
6.69608
5.69885
4.94658
4.36122
3.89414
3.51361
3.19816
2.93275
2.7066
2.51176
2.34227
2.19357
2.06213
1.94514
1.8404
1.74609
1.66076
1.58321
1.51242
1.44757
1.38794
1.33294
1.28205
1.23484
1.19092
1.14997
1.11169
1.07585
1.0422
1.01057
0.980772
0.952656
0.926085
0.900937
0.8771
0.854476
0.832975
0.812516
0.793026
0.774438
0.756692
0.739731
0.723505
0.707969
0.693078
0.678794
0.665082
0.651906
0.639237
0.627047
0.615308
0.603997
0.59309
0.582567
0.572407
0.562592
0.553106
0.543931
0.535053
0.526458
0.518132
0.510064
0.502241
0.494652
0.487288
0.480138
0.473193
0.466445
0.459885
0.453506
0.4473
0.441261
0.435381
0.429655
0.424076
0.41864
0.41334
0.408173
0.403207
8.07067
6.69608
5.69885
4.94658
4.36122
3.89414
3.51361
3.19816
2.93275
2.7066
2.51176
2.34227
2.19357
2.06213
1.94514
1.8404
1.74609
1.66076
1.58321
1.51242
1.44757
1.38794
1.33294
1.28205
1.23484
1.19092
1.14997
1.1117
1.07585
1.0422
1.01057
0.980773
0.952657
0.926087
0.900938
0.877102
0.854478
0.832977
0.812518
0.793028
0.77444
0.756693
0.739733
0.723507
0.70797
0.69308
0.678796
0.665083
0.651907
0.639239
0.627048
0.61531
0.603998
0.593091
0.582568
0.572408
0.562593
0.553107
0.543932
0.535054
0.526459
0.518133
0.510065
0.502242
0.494653
0.487289
0.480139
0.473194
0.466446
0.459886
0.453507
0.447301
0.441261
0.435382
0.429655
0.424077
0.418641
0.413341
0.408174
0.403208
8.07067
6.69608
5.69885
4.94658
4.36122
3.89414
3.51361
3.19816
2.93275
2.7066
2.51176
2.34227
2.19357
2.06213
1.94514
1.8404
1.74609
1.66076
1.58321
1.51242
1.44757
1.38794
1.33294
1.28205
1.23484
1.19092
1.14997
1.1117
1.07585
1.04221
1.01057
0.980774
0.952659
0.926089
0.90094
0.877104
0.854479
0.832979
0.81252
0.79303
0.774442
0.756695
0.739734
0.723509
0.707972
0.693081
0.678798
0.665085
0.651909
0.63924
0.62705
0.615311
0.604
0.593093
0.582569
0.572409
0.562595
0.553108
0.543933
0.535055
0.52646
0.518134
0.510066
0.502243
0.494654
0.48729
0.48014
0.473195
0.466447
0.459887
0.453508
0.447302
0.441262
0.435382
0.429656
0.424078
0.418641
0.413342
0.408175
0.403209
8.07067
6.69608
5.69885
4.94658
4.36122
3.89414
3.51361
3.19816
2.93275
2.7066
2.51176
2.34227
2.19357
2.06213
1.94514
1.8404
1.74609
1.66076
1.58321
1.51242
1.44757
1.38794
1.33294
1.28205
1.23484
1.19092
1.14997
1.1117
1.07585
1.04221
1.01057
0.980776
0.952661
0.92609
0.900942
0.877106
0.854482
0.832981
0.812522
0.793032
0.774444
0.756697
0.739736
0.723511
0.707974
0.693083
0.678799
0.665086
0.651911
0.639242
0.627051
0.615313
0.604001
0.593094
0.582571
0.572411
0.562596
0.553109
0.543934
0.535056
0.526461
0.518136
0.510067
0.502244
0.494655
0.487291
0.480141
0.473196
0.466448
0.459888
0.453509
0.447303
0.441263
0.435383
0.429657
0.424079
0.418642
0.413342
0.408175
0.403209
8.07067
6.69608
5.69885
4.94658
4.36122
3.89414
3.51361
3.19816
2.93275
2.7066
2.51176
2.34227
2.19357
2.06212
1.94514
1.8404
1.74609
1.66076
1.58321
1.51242
1.44757
1.38794
1.33294
1.28205
1.23484
1.19092
1.14997
1.1117
1.07585
1.04221
1.01058
0.980778
0.952663
0.926092
0.900944
0.877108
0.854484
0.832983
0.812524
0.793034
0.774446
0.756699
0.739739
0.723513
0.707976
0.693085
0.678801
0.665088
0.651913
0.639244
0.627053
0.615314
0.604003
0.593096
0.582572
0.572412
0.562598
0.553111
0.543936
0.535058
0.526463
0.518137
0.510068
0.502245
0.494657
0.487292
0.480142
0.473197
0.466449
0.459889
0.45351
0.447304
0.441264
0.435384
0.429658
0.42408
0.418643
0.413343
0.408176
0.40321
8.07067
6.69608
5.69885
4.94658
4.36122
3.89414
3.51361
3.19816
2.93275
2.7066
2.51176
2.34227
2.19357
2.06212
1.94514
1.8404
1.74609
1.66076
1.58321
1.51242
1.44757
1.38794
1.33294
1.28205
1.23484
1.19092
1.14997
1.1117
1.07585
1.04221
1.01058
0.98078
0.952665
0.926095
0.900947
0.87711
0.854486
0.832985
0.812527
0.793037
0.774449
0.756702
0.739741
0.723515
0.707978
0.693087
0.678804
0.66509
0.651915
0.639246
0.627055
0.615316
0.604005
0.593098
0.582574
0.572414
0.562599
0.553112
0.543937
0.535059
0.526464
0.518138
0.51007
0.502247
0.494658
0.487293
0.480143
0.473198
0.46645
0.45989
0.453511
0.447305
0.441265
0.435385
0.429659
0.424081
0.418644
0.413344
0.408177
0.403211
8.07067
6.69608
5.69885
4.94658
4.36122
3.89414
3.51361
3.19816
2.93275
2.7066
2.51176
2.34227
2.19357
2.06212
1.94514
1.8404
1.74609
1.66076
1.58321
1.51242
1.44757
1.38794
1.33294
1.28205
1.23484
1.19093
1.14997
1.1117
1.07585
1.04221
1.01058
0.980782
0.952667
0.926097
0.900949
0.877113
0.854489
0.832988
0.812529
0.793039
0.774451
0.756704
0.739743
0.723518
0.707981
0.69309
0.678806
0.665093
0.651917
0.639248
0.627057
0.615318
0.604007
0.5931
0.582576
0.572416
0.562601
0.553114
0.543939
0.535061
0.526466
0.51814
0.510071
0.502248
0.494659
0.487295
0.480145
0.4732
0.466451
0.459891
0.453512
0.447306
0.441266
0.435387
0.42966
0.424082
0.418645
0.413345
0.408178
0.403212
8.07067
6.69608
5.69885
4.94658
4.36122
3.89414
3.51361
3.19816
2.93275
2.7066
2.51176
2.34227
2.19357
2.06212
1.94514
1.8404
1.74609
1.66076
1.58321
1.51242
1.44757
1.38794
1.33294
1.28205
1.23484
1.19093
1.14998
1.1117
1.07586
1.04221
1.01058
0.980784
0.952669
0.9261
0.900952
0.877115
0.854492
0.832991
0.812532
0.793042
0.774454
0.756707
0.739746
0.72352
0.707983
0.693092
0.678808
0.665095
0.651919
0.63925
0.62706
0.615321
0.604009
0.593102
0.582578
0.572418
0.562603
0.553116
0.543941
0.535063
0.526467
0.518141
0.510073
0.50225
0.494661
0.487296
0.480146
0.473201
0.466453
0.459893
0.453513
0.447307
0.441268
0.435388
0.429662
0.424083
0.418646
0.413346
0.408179
0.403213
8.07067
6.69608
5.69885
4.94658
4.36122
3.89414
3.51361
3.19816
2.93275
2.7066
2.51176
2.34227
2.19357
2.06212
1.94514
1.84039
1.74609
1.66076
1.58321
1.51242
1.44757
1.38794
1.33294
1.28205
1.23484
1.19093
1.14998
1.1117
1.07586
1.04222
1.01058
0.980786
0.952672
0.926102
0.900954
0.877118
0.854494
0.832994
0.812535
0.793045
0.774457
0.75671
0.739749
0.723523
0.707986
0.693095
0.678811
0.665098
0.651922
0.639253
0.627062
0.615323
0.604011
0.593104
0.58258
0.57242
0.562605
0.553118
0.543943
0.535064
0.526469
0.518143
0.510074
0.502251
0.494662
0.487298
0.480148
0.473203
0.466454
0.459894
0.453515
0.447309
0.441269
0.435389
0.429663
0.424084
0.418647
0.413348
0.40818
0.403214
8.07067
6.69608
5.69885
4.94658
4.36122
3.89414
3.51361
3.19816
2.93275
2.7066
2.51176
2.34227
2.19357
2.06212
1.94514
1.84039
1.74609
1.66076
1.58321
1.51242
1.44757
1.38794
1.33294
1.28205
1.23484
1.19093
1.14998
1.11171
1.07586
1.04222
1.01059
0.980789
0.952675
0.926105
0.900957
0.877121
0.854498
0.832997
0.812538
0.793048
0.77446
0.756713
0.739752
0.723526
0.707989
0.693098
0.678813
0.6651
0.651924
0.639255
0.627064
0.615325
0.604013
0.593106
0.582582
0.572422
0.562607
0.55312
0.543945
0.535066
0.526471
0.518145
0.510076
0.502253
0.494664
0.487299
0.480149
0.473204
0.466456
0.459896
0.453516
0.44731
0.44127
0.43539
0.429664
0.424085
0.418649
0.413349
0.408182
0.403215
8.07067
6.69608
5.69885
4.94658
4.36122
3.89414
3.51361
3.19816
2.93275
2.7066
2.51176
2.34227
2.19357
2.06212
1.94514
1.84039
1.74609
1.66076
1.58321
1.51242
1.44757
1.38794
1.33294
1.28206
1.23484
1.19093
1.14998
1.11171
1.07586
1.04222
1.01059
0.980791
0.952677
0.926108
0.90096
0.877124
0.854501
0.833
0.812541
0.793051
0.774463
0.756716
0.739755
0.723529
0.707991
0.6931
0.678816
0.665103
0.651927
0.639257
0.627066
0.615327
0.604015
0.593108
0.582584
0.572424
0.562609
0.553122
0.543946
0.535068
0.526473
0.518147
0.510078
0.502254
0.494666
0.487301
0.480151
0.473205
0.466457
0.459897
0.453517
0.447311
0.441272
0.435392
0.429665
0.424087
0.41865
0.41335
0.408183
0.403217
8.07067
6.69608
5.69885
4.94658
4.36122
3.89414
3.51361
3.19816
2.93275
2.7066
2.51176
2.34227
2.19357
2.06212
1.94514
1.84039
1.74609
1.66076
1.58321
1.51242
1.44757
1.38794
1.33294
1.28206
1.23484
1.19093
1.14998
1.11171
1.07586
1.04222
1.01059
0.980794
0.95268
0.92611
0.900963
0.877127
0.854503
0.833003
0.812544
0.793054
0.774466
0.756719
0.739757
0.723531
0.707994
0.693103
0.678819
0.665105
0.651929
0.63926
0.627069
0.615329
0.604017
0.59311
0.582586
0.572426
0.562611
0.553123
0.543948
0.53507
0.526474
0.518148
0.510079
0.502256
0.494667
0.487302
0.480152
0.473207
0.466458
0.459898
0.453519
0.447313
0.441273
0.435393
0.429666
0.424088
0.418651
0.413351
0.408184
0.403218
8.07067
6.69608
5.69885
4.94658
4.36122
3.89414
3.51361
3.19816
2.93275
2.7066
2.51176
2.34227
2.19357
2.06212
1.94514
1.84039
1.74609
1.66076
1.58321
1.51242
1.44757
1.38794
1.33294
1.28206
1.23485
1.19093
1.14998
1.11171
1.07586
1.04222
1.01059
0.980796
0.952682
0.926113
0.900966
0.87713
0.854506
0.833006
0.812547
0.793057
0.774468
0.756721
0.73976
0.723534
0.707997
0.693105
0.678821
0.665107
0.651931
0.639262
0.627071
0.615331
0.60402
0.593112
0.582588
0.572428
0.562612
0.553125
0.54395
0.535071
0.526476
0.51815
0.510081
0.502257
0.494669
0.487304
0.480153
0.473208
0.46646
0.4599
0.45352
0.447314
0.441274
0.435394
0.429668
0.424089
0.418652
0.413352
0.408185
0.403219
8.07067
6.69608
5.69885
4.94658
4.36122
3.89414
3.51361
3.19816
2.93275
2.7066
2.51176
2.34227
2.19357
2.06212
1.94514
1.84039
1.74609
1.66076
1.58321
1.51242
1.44757
1.38794
1.33294
1.28206
1.23485
1.19093
1.14998
1.11171
1.07587
1.04222
1.01059
0.980798
0.952684
0.926115
0.900968
0.877132
0.854509
0.833008
0.812549
0.793059
0.774471
0.756724
0.739763
0.723536
0.707999
0.693108
0.678823
0.66511
0.651933
0.639264
0.627073
0.615333
0.604021
0.593114
0.58259
0.572429
0.562614
0.553127
0.543951
0.535073
0.526477
0.518151
0.510082
0.502259
0.49467
0.487305
0.480155
0.47321
0.466461
0.459901
0.453521
0.447315
0.441275
0.435395
0.429669
0.42409
0.418653
0.413353
0.408186
0.40322
8.07067
6.69608
5.69885
4.94658
4.36122
3.89414
3.51361
3.19816
2.93275
2.7066
2.51176
2.34227
2.19357
2.06212
1.94514
1.84039
1.74609
1.66076
1.58321
1.51242
1.44757
1.38794
1.33294
1.28206
1.23485
1.19093
1.14998
1.11171
1.07587
1.04223
1.0106
0.9808
0.952686
0.926117
0.90097
0.877135
0.854511
0.833011
0.812552
0.793062
0.774473
0.756726
0.739765
0.723539
0.708001
0.69311
0.678825
0.665112
0.651935
0.639266
0.627075
0.615335
0.604023
0.593116
0.582591
0.572431
0.562616
0.553128
0.543953
0.535074
0.526479
0.518153
0.510084
0.50226
0.494671
0.487306
0.480156
0.473211
0.466462
0.459902
0.453522
0.447316
0.441276
0.435396
0.42967
0.424091
0.418654
0.413354
0.408187
0.403221
8.07067
6.69608
5.69885
4.94658
4.36122
3.89414
3.51361
3.19816
2.93275
2.7066
2.51176
2.34227
2.19357
2.06212
1.94514
1.84039
1.74609
1.66076
1.58321
1.51242
1.44757
1.38794
1.33294
1.28206
1.23485
1.19093
1.14998
1.11171
1.07587
1.04223
1.0106
0.980801
0.952688
0.926119
0.900972
0.877137
0.854513
0.833013
0.812554
0.793064
0.774475
0.756728
0.739767
0.723541
0.708003
0.693112
0.678827
0.665113
0.651937
0.639267
0.627076
0.615337
0.604025
0.593117
0.582593
0.572432
0.562617
0.55313
0.543954
0.535076
0.52648
0.518154
0.510085
0.502261
0.494672
0.487307
0.480157
0.473212
0.466463
0.459903
0.453523
0.447317
0.441277
0.435397
0.429671
0.424092
0.418655
0.413355
0.408188
0.403221
8.07067
6.69608
5.69885
4.94658
4.36122
3.89414
3.51361
3.19816
2.93275
2.7066
2.51176
2.34227
2.19357
2.06212
1.94514
1.84039
1.74609
1.66076
1.5832
1.51242
1.44757
1.38794
1.33294
1.28206
1.23485
1.19093
1.14998
1.11171
1.07587
1.04223
1.0106
0.980803
0.952689
0.926121
0.900974
0.877138
0.854515
0.833014
0.812556
0.793065
0.774477
0.75673
0.739768
0.723542
0.708004
0.693113
0.678828
0.665115
0.651938
0.639269
0.627077
0.615338
0.604026
0.593118
0.582594
0.572433
0.562618
0.553131
0.543955
0.535077
0.526481
0.518155
0.510086
0.502262
0.494673
0.487308
0.480158
0.473212
0.466464
0.459904
0.453524
0.447318
0.441278
0.435398
0.429671
0.424092
0.418656
0.413356
0.408188
0.403222
8.07067
6.69608
5.69885
4.94658
4.36122
3.89414
3.51361
3.19816
2.93275
2.7066
2.51176
2.34227
2.19357
2.06212
1.94514
1.84039
1.74609
1.66076
1.5832
1.51242
1.44757
1.38794
1.33294
1.28206
1.23485
1.19093
1.14998
1.11171
1.07587
1.04223
1.0106
0.980804
0.95269
0.926122
0.900975
0.877139
0.854516
0.833015
0.812557
0.793066
0.774478
0.756731
0.739769
0.723543
0.708005
0.693114
0.678829
0.665115
0.651939
0.63927
0.627078
0.615339
0.604026
0.593119
0.582595
0.572434
0.562619
0.553131
0.543956
0.535077
0.526481
0.518155
0.510086
0.502263
0.494674
0.487309
0.480158
0.473213
0.466464
0.459904
0.453524
0.447318
0.441278
0.435398
0.429672
0.424093
0.418656
0.413356
0.408189
0.403222
8.07067
6.69608
5.69885
4.94658
4.36122
3.89414
3.51361
3.19816
2.93275
2.7066
2.51176
2.34227
2.19357
2.06212
1.94514
1.84039
1.74609
1.66076
1.5832
1.51242
1.44757
1.38794
1.33294
1.28206
1.23485
1.19093
1.14998
1.11171
1.07587
1.04223
1.0106
0.980804
0.952691
0.926122
0.900975
0.87714
0.854517
0.833016
0.812557
0.793067
0.774479
0.756731
0.73977
0.723544
0.708006
0.693114
0.67883
0.665116
0.65194
0.63927
0.627079
0.615339
0.604027
0.593119
0.582595
0.572434
0.562619
0.553132
0.543956
0.535078
0.526482
0.518156
0.510087
0.502263
0.494674
0.487309
0.480159
0.473213
0.466465
0.459904
0.453525
0.447318
0.441279
0.435398
0.429672
0.424093
0.418656
0.413356
0.408189
0.403223
8.07067
6.69608
5.69885
4.94658
4.36122
3.89414
3.51361
3.19816
2.93275
2.7066
2.51176
2.34227
2.19357
2.06212
1.94514
1.84039
1.74609
1.66076
1.5832
1.51242
1.44757
1.38794
1.33294
1.28206
1.23485
1.19093
1.14998
1.11171
1.07587
1.04223
1.0106
0.980804
0.952691
0.926122
0.900975
0.87714
0.854517
0.833016
0.812557
0.793067
0.774479
0.756731
0.73977
0.723544
0.708006
0.693114
0.67883
0.665116
0.65194
0.63927
0.627079
0.615339
0.604027
0.593119
0.582595
0.572434
0.562619
0.553132
0.543956
0.535078
0.526482
0.518156
0.510087
0.502263
0.494674
0.487309
0.480159
0.473213
0.466465
0.459904
0.453525
0.447318
0.441279
0.435398
0.429672
0.424093
0.418656
0.413356
0.408189
0.403223
8.07067
6.69608
5.69885
4.94658
4.36122
3.89414
3.51361
3.19816
2.93275
2.7066
2.51176
2.34227
2.19357
2.06212
1.94514
1.84039
1.74609
1.66076
1.5832
1.51242
1.44757
1.38794
1.33294
1.28206
1.23485
1.19093
1.14998
1.11171
1.07587
1.04223
1.0106
0.980804
0.95269
0.926122
0.900975
0.877139
0.854516
0.833015
0.812557
0.793066
0.774478
0.756731
0.739769
0.723543
0.708005
0.693114
0.678829
0.665115
0.651939
0.63927
0.627078
0.615339
0.604026
0.593119
0.582595
0.572434
0.562619
0.553131
0.543956
0.535077
0.526481
0.518155
0.510086
0.502263
0.494674
0.487309
0.480158
0.473213
0.466464
0.459904
0.453524
0.447318
0.441278
0.435398
0.429672
0.424093
0.418656
0.413356
0.408189
0.403222
8.07067
6.69608
5.69885
4.94658
4.36122
3.89414
3.51361
3.19816
2.93275
2.7066
2.51176
2.34227
2.19357
2.06212
1.94514
1.84039
1.74609
1.66076
1.58321
1.51242
1.44757
1.38794
1.33294
1.28206
1.23485
1.19093
1.14998
1.11171
1.07587
1.04223
1.0106
0.980803
0.952689
0.926121
0.900974
0.877138
0.854515
0.833014
0.812556
0.793065
0.774477
0.75673
0.739768
0.723542
0.708004
0.693113
0.678828
0.665115
0.651938
0.639269
0.627077
0.615338
0.604026
0.593118
0.582594
0.572433
0.562618
0.553131
0.543955
0.535077
0.526481
0.518155
0.510086
0.502262
0.494673
0.487308
0.480158
0.473212
0.466464
0.459904
0.453524
0.447318
0.441278
0.435398
0.429671
0.424092
0.418656
0.413356
0.408188
0.403222
8.07067
6.69608
5.69885
4.94658
4.36122
3.89414
3.51361
3.19816
2.93275
2.7066
2.51176
2.34227
2.19357
2.06212
1.94514
1.84039
1.74609
1.66076
1.58321
1.51242
1.44757
1.38794
1.33294
1.28206
1.23485
1.19093
1.14998
1.11171
1.07587
1.04223
1.0106
0.980801
0.952688
0.926119
0.900972
0.877137
0.854513
0.833013
0.812554
0.793064
0.774475
0.756728
0.739767
0.723541
0.708003
0.693111
0.678827
0.665113
0.651937
0.639267
0.627076
0.615337
0.604025
0.593117
0.582593
0.572432
0.562617
0.55313
0.543954
0.535076
0.52648
0.518154
0.510085
0.502261
0.494672
0.487307
0.480157
0.473212
0.466463
0.459903
0.453523
0.447317
0.441277
0.435397
0.429671
0.424092
0.418655
0.413355
0.408188
0.403221
8.07067
6.69608
5.69885
4.94658
4.36122
3.89414
3.51361
3.19816
2.93275
2.7066
2.51176
2.34227
2.19357
2.06212
1.94514
1.84039
1.74609
1.66076
1.58321
1.51242
1.44757
1.38794
1.33294
1.28206
1.23485
1.19093
1.14998
1.11171
1.07587
1.04223
1.0106
0.9808
0.952686
0.926118
0.90097
0.877135
0.854511
0.833011
0.812552
0.793062
0.774473
0.756726
0.739765
0.723539
0.708001
0.69311
0.678825
0.665112
0.651935
0.639266
0.627075
0.615335
0.604023
0.593116
0.582591
0.572431
0.562616
0.553128
0.543953
0.535074
0.526479
0.518153
0.510084
0.50226
0.494671
0.487306
0.480156
0.473211
0.466462
0.459902
0.453522
0.447316
0.441276
0.435396
0.42967
0.424091
0.418654
0.413354
0.408187
0.403221
8.07067
6.69608
5.69885
4.94658
4.36122
3.89414
3.51361
3.19816
2.93275
2.7066
2.51176
2.34227
2.19357
2.06212
1.94514
1.84039
1.74609
1.66076
1.58321
1.51242
1.44757
1.38794
1.33294
1.28206
1.23485
1.19093
1.14998
1.11171
1.07587
1.04222
1.01059
0.980798
0.952684
0.926115
0.900968
0.877132
0.854509
0.833008
0.812549
0.793059
0.774471
0.756724
0.739763
0.723536
0.707999
0.693108
0.678823
0.66511
0.651933
0.639264
0.627073
0.615333
0.604021
0.593114
0.58259
0.572429
0.562614
0.553127
0.543951
0.535073
0.526477
0.518151
0.510082
0.502259
0.49467
0.487305
0.480155
0.47321
0.466461
0.459901
0.453521
0.447315
0.441275
0.435395
0.429669
0.42409
0.418653
0.413353
0.408186
0.40322
8.07067
6.69608
5.69885
4.94658
4.36122
3.89414
3.51361
3.19816
2.93275
2.7066
2.51176
2.34227
2.19357
2.06212
1.94514
1.84039
1.74609
1.66076
1.58321
1.51242
1.44757
1.38794
1.33294
1.28206
1.23485
1.19093
1.14998
1.11171
1.07586
1.04222
1.01059
0.980796
0.952682
0.926113
0.900966
0.87713
0.854506
0.833006
0.812547
0.793057
0.774468
0.756721
0.73976
0.723534
0.707997
0.693105
0.678821
0.665107
0.651931
0.639262
0.627071
0.615331
0.604019
0.593112
0.582588
0.572428
0.562612
0.553125
0.54395
0.535071
0.526476
0.51815
0.510081
0.502257
0.494669
0.487304
0.480153
0.473208
0.46646
0.4599
0.45352
0.447314
0.441274
0.435394
0.429668
0.424089
0.418652
0.413352
0.408185
0.403219
8.07067
6.69608
5.69885
4.94658
4.36122
3.89414
3.51361
3.19816
2.93275
2.7066
2.51176
2.34227
2.19357
2.06212
1.94514
1.84039
1.74609
1.66076
1.58321
1.51242
1.44757
1.38794
1.33294
1.28206
1.23484
1.19093
1.14998
1.11171
1.07586
1.04222
1.01059
0.980794
0.95268
0.92611
0.900963
0.877127
0.854503
0.833003
0.812544
0.793054
0.774466
0.756719
0.739757
0.723531
0.707994
0.693103
0.678819
0.665105
0.651929
0.63926
0.627069
0.615329
0.604017
0.59311
0.582586
0.572426
0.562611
0.553123
0.543948
0.53507
0.526474
0.518148
0.510079
0.502256
0.494667
0.487302
0.480152
0.473207
0.466458
0.459898
0.453519
0.447313
0.441273
0.435393
0.429666
0.424088
0.418651
0.413351
0.408184
0.403218
8.07067
6.69608
5.69885
4.94658
4.36122
3.89414
3.51361
3.19816
2.93275
2.7066
2.51176
2.34227
2.19357
2.06212
1.94514
1.84039
1.74609
1.66076
1.58321
1.51242
1.44757
1.38794
1.33294
1.28206
1.23484
1.19093
1.14998
1.11171
1.07586
1.04222
1.01059
0.980791
0.952677
0.926108
0.90096
0.877124
0.854501
0.833
0.812541
0.793051
0.774463
0.756716
0.739755
0.723529
0.707991
0.6931
0.678816
0.665103
0.651927
0.639257
0.627066
0.615327
0.604015
0.593108
0.582584
0.572424
0.562609
0.553121
0.543946
0.535068
0.526472
0.518147
0.510078
0.502254
0.494665
0.487301
0.48015
0.473205
0.466457
0.459897
0.453517
0.447311
0.441272
0.435392
0.429665
0.424086
0.41865
0.41335
0.408183
0.403217
8.07067
6.69608
5.69885
4.94658
4.36122
3.89414
3.51361
3.19816
2.93275
2.7066
2.51176
2.34227
2.19357
2.06212
1.94514
1.84039
1.74609
1.66076
1.58321
1.51242
1.44757
1.38794
1.33294
1.28205
1.23484
1.19093
1.14998
1.11171
1.07586
1.04222
1.01059
0.980789
0.952675
0.926105
0.900957
0.877121
0.854497
0.832997
0.812538
0.793048
0.77446
0.756713
0.739752
0.723526
0.707989
0.693098
0.678813
0.6651
0.651924
0.639255
0.627064
0.615325
0.604013
0.593106
0.582582
0.572422
0.562607
0.55312
0.543944
0.535066
0.526471
0.518145
0.510076
0.502253
0.494664
0.487299
0.480149
0.473204
0.466456
0.459895
0.453516
0.44731
0.44127
0.43539
0.429664
0.424085
0.418649
0.413349
0.408182
0.403215
8.07067
6.69608
5.69885
4.94658
4.36122
3.89414
3.51361
3.19816
2.93275
2.7066
2.51176
2.34227
2.19357
2.06212
1.94514
1.84039
1.74609
1.66076
1.58321
1.51242
1.44757
1.38794
1.33294
1.28205
1.23484
1.19093
1.14998
1.1117
1.07586
1.04222
1.01058
0.980786
0.952672
0.926102
0.900954
0.877118
0.854494
0.832994
0.812535
0.793045
0.774457
0.75671
0.739749
0.723523
0.707986
0.693095
0.678811
0.665097
0.651922
0.639253
0.627062
0.615323
0.604011
0.593104
0.58258
0.57242
0.562605
0.553118
0.543943
0.535064
0.526469
0.518143
0.510074
0.502251
0.494662
0.487298
0.480147
0.473202
0.466454
0.459894
0.453515
0.447309
0.441269
0.435389
0.429663
0.424084
0.418647
0.413348
0.40818
0.403214
8.07067
6.69608
5.69885
4.94658
4.36122
3.89414
3.51361
3.19816
2.93275
2.7066
2.51176
2.34227
2.19357
2.06212
1.94514
1.8404
1.74609
1.66076
1.58321
1.51242
1.44757
1.38794
1.33294
1.28205
1.23484
1.19093
1.14998
1.1117
1.07586
1.04221
1.01058
0.980784
0.952669
0.9261
0.900952
0.877115
0.854492
0.832991
0.812532
0.793042
0.774454
0.756707
0.739746
0.72352
0.707983
0.693092
0.678808
0.665095
0.651919
0.63925
0.627059
0.61532
0.604009
0.593102
0.582578
0.572418
0.562603
0.553116
0.543941
0.535063
0.526467
0.518141
0.510073
0.502249
0.494661
0.487296
0.480146
0.473201
0.466453
0.459893
0.453513
0.447307
0.441268
0.435388
0.429661
0.424083
0.418646
0.413346
0.408179
0.403213
8.07067
6.69608
5.69885
4.94658
4.36122
3.89414
3.51361
3.19816
2.93275
2.7066
2.51176
2.34227
2.19357
2.06212
1.94514
1.8404
1.74609
1.66076
1.58321
1.51242
1.44757
1.38794
1.33294
1.28205
1.23484
1.19093
1.14997
1.1117
1.07585
1.04221
1.01058
0.980782
0.952667
0.926097
0.900949
0.877113
0.854489
0.832988
0.812529
0.793039
0.774451
0.756704
0.739743
0.723518
0.707981
0.69309
0.678806
0.665093
0.651917
0.639248
0.627057
0.615318
0.604007
0.5931
0.582576
0.572416
0.562601
0.553114
0.543939
0.535061
0.526466
0.51814
0.510071
0.502248
0.494659
0.487295
0.480145
0.4732
0.466451
0.459891
0.453512
0.447306
0.441266
0.435387
0.42966
0.424082
0.418645
0.413345
0.408178
0.403212
8.07067
6.69608
5.69885
4.94658
4.36122
3.89414
3.51361
3.19816
2.93275
2.7066
2.51176
2.34227
2.19357
2.06212
1.94514
1.8404
1.74609
1.66076
1.58321
1.51242
1.44757
1.38794
1.33294
1.28205
1.23484
1.19092
1.14997
1.1117
1.07585
1.04221
1.01058
0.98078
0.952665
0.926095
0.900947
0.87711
0.854486
0.832985
0.812527
0.793037
0.774448
0.756702
0.739741
0.723515
0.707978
0.693087
0.678804
0.66509
0.651915
0.639246
0.627055
0.615316
0.604005
0.593098
0.582574
0.572414
0.562599
0.553112
0.543937
0.535059
0.526464
0.518138
0.51007
0.502247
0.494658
0.487293
0.480143
0.473198
0.46645
0.45989
0.453511
0.447305
0.441265
0.435385
0.429659
0.424081
0.418644
0.413344
0.408177
0.403211
8.07067
6.69608
5.69885
4.94658
4.36122
3.89414
3.51361
3.19816
2.93275
2.7066
2.51176
2.34227
2.19357
2.06212
1.94514
1.8404
1.74609
1.66076
1.58321
1.51242
1.44757
1.38794
1.33294
1.28205
1.23484
1.19092
1.14997
1.1117
1.07585
1.04221
1.01058
0.980778
0.952663
0.926092
0.900944
0.877108
0.854484
0.832983
0.812524
0.793034
0.774446
0.756699
0.739739
0.723513
0.707976
0.693085
0.678801
0.665088
0.651913
0.639244
0.627053
0.615314
0.604003
0.593096
0.582572
0.572412
0.562598
0.553111
0.543936
0.535058
0.526463
0.518137
0.510068
0.502245
0.494657
0.487292
0.480142
0.473197
0.466449
0.459889
0.45351
0.447304
0.441264
0.435384
0.429658
0.42408
0.418643
0.413343
0.408176
0.40321
8.07067
6.69608
5.69885
4.94658
4.36122
3.89414
3.51361
3.19816
2.93275
2.7066
2.51176
2.34227
2.19357
2.06213
1.94514
1.8404
1.74609
1.66076
1.58321
1.51242
1.44757
1.38794
1.33294
1.28205
1.23484
1.19092
1.14997
1.1117
1.07585
1.04221
1.01057
0.980776
0.952661
0.92609
0.900942
0.877106
0.854482
0.832981
0.812522
0.793032
0.774444
0.756697
0.739736
0.723511
0.707974
0.693083
0.678799
0.665086
0.651911
0.639242
0.627051
0.615313
0.604001
0.593094
0.582571
0.572411
0.562596
0.553109
0.543934
0.535056
0.526461
0.518136
0.510067
0.502244
0.494655
0.487291
0.480141
0.473196
0.466448
0.459888
0.453509
0.447303
0.441263
0.435383
0.429657
0.424079
0.418642
0.413342
0.408175
0.403209
8.07067
6.69608
5.69885
4.94658
4.36122
3.89414
3.51361
3.19816
2.93275
2.7066
2.51176
2.34227
2.19357
2.06213
1.94514
1.8404
1.74609
1.66076
1.58321
1.51242
1.44757
1.38794
1.33294
1.28205
1.23484
1.19092
1.14997
1.1117
1.07585
1.04221
1.01057
0.980774
0.952659
0.926089
0.90094
0.877104
0.85448
0.832979
0.81252
0.79303
0.774442
0.756695
0.739734
0.723509
0.707972
0.693081
0.678798
0.665085
0.651909
0.63924
0.62705
0.615311
0.604
0.593093
0.582569
0.572409
0.562595
0.553108
0.543933
0.535055
0.52646
0.518134
0.510066
0.502243
0.494654
0.48729
0.48014
0.473195
0.466447
0.459887
0.453508
0.447302
0.441262
0.435382
0.429656
0.424078
0.418641
0.413342
0.408175
0.403209
8.07067
6.69608
5.69885
4.94658
4.36122
3.89414
3.51361
3.19816
2.93275
2.7066
2.51176
2.34227
2.19357
2.06213
1.94514
1.8404
1.74609
1.66076
1.58321
1.51242
1.44757
1.38794
1.33294
1.28205
1.23484
1.19092
1.14997
1.1117
1.07585
1.0422
1.01057
0.980773
0.952658
0.926087
0.900938
0.877102
0.854478
0.832977
0.812518
0.793028
0.77444
0.756693
0.739733
0.723507
0.70797
0.69308
0.678796
0.665083
0.651907
0.639239
0.627048
0.61531
0.603998
0.593091
0.582568
0.572408
0.562593
0.553107
0.543932
0.535054
0.526459
0.518133
0.510065
0.502242
0.494653
0.487289
0.480139
0.473194
0.466446
0.459886
0.453507
0.447301
0.441261
0.435382
0.429655
0.424077
0.418641
0.413341
0.408174
0.403208
8.07067
6.69608
5.69885
4.94658
4.36122
3.89414
3.51361
3.19816
2.93275
2.7066
2.51176
2.34227
2.19357
2.06213
1.94514
1.8404
1.74609
1.66076
1.58321
1.51242
1.44757
1.38794
1.33294
1.28205
1.23484
1.19092
1.14997
1.11169
1.07585
1.0422
1.01057
0.980772
0.952656
0.926085
0.900937
0.8771
0.854476
0.832975
0.812516
0.793026
0.774438
0.756692
0.739731
0.723505
0.707969
0.693078
0.678794
0.665082
0.651906
0.639237
0.627047
0.615308
0.603997
0.59309
0.582567
0.572407
0.562592
0.553106
0.543931
0.535053
0.526458
0.518132
0.510064
0.502241
0.494652
0.487288
0.480138
0.473193
0.466445
0.459885
0.453506
0.4473
0.441261
0.435381
0.429655
0.424076
0.41864
0.41334
0.408173
0.403207
8.07067
6.69608
5.69885
4.94658
4.36122
3.89414
3.51361
3.19816
2.93275
2.7066
2.51176
2.34227
2.19357
2.06213
1.94514
1.8404
1.74609
1.66076
1.58321
1.51242
1.44757
1.38794
1.33294
1.28205
1.23484
1.19092
1.14997
1.11169
1.07585
1.0422
1.01057
0.980771
0.952655
0.926084
0.900936
0.877099
0.854475
0.832974
0.812515
0.793025
0.774437
0.756691
0.73973
0.723504
0.707968
0.693077
0.678793
0.665081
0.651905
0.639237
0.627046
0.615308
0.603996
0.593089
0.582566
0.572406
0.562592
0.553105
0.54393
0.535052
0.526457
0.518132
0.510063
0.50224
0.494652
0.487287
0.480137
0.473193
0.466445
0.459885
0.453506
0.4473
0.44126
0.435381
0.429654
0.424076
0.41864
0.41334
0.408173
0.403207
8.07067
6.69608
5.69885
4.94658
4.36122
3.89414
3.51361
3.19816
2.93275
2.7066
2.51176
2.34227
2.19357
2.06213
1.94514
1.8404
1.74609
1.66076
1.58321
1.51242
1.44757
1.38794
1.33294
1.28205
1.23484
1.19092
1.14997
1.11169
1.07585
1.0422
1.01057
0.980772
0.952656
0.926085
0.900937
0.8771
0.854476
0.832975
0.812516
0.793026
0.774438
0.756692
0.739731
0.723505
0.707969
0.693078
0.678794
0.665082
0.651906
0.639237
0.627047
0.615308
0.603997
0.59309
0.582567
0.572407
0.562592
0.553106
0.543931
0.535053
0.526458
0.518132
0.510064
0.502241
0.494652
0.487288
0.480138
0.473193
0.466445
0.459885
0.453506
0.4473
0.441261
0.435381
0.429655
0.424076
0.41864
0.41334
0.408173
0.403207
8.07067
6.69608
5.69885
4.94658
4.36122
3.89414
3.51361
3.19816
2.93275
2.7066
2.51176
2.34227
2.19357
2.06213
1.94514
1.8404
1.74609
1.66076
1.58321
1.51242
1.44757
1.38794
1.33294
1.28205
1.23484
1.19092
1.14997
1.1117
1.07585
1.0422
1.01057
0.980773
0.952657
0.926087
0.900938
0.877102
0.854477
0.832976
0.812518
0.793028
0.77444
0.756693
0.739732
0.723507
0.70797
0.693079
0.678796
0.665083
0.651907
0.639238
0.627048
0.615309
0.603998
0.593091
0.582568
0.572408
0.562593
0.553106
0.543932
0.535054
0.526458
0.518133
0.510064
0.502241
0.494653
0.487288
0.480138
0.473194
0.466446
0.459886
0.453506
0.447301
0.441261
0.435381
0.429655
0.424077
0.41864
0.413341
0.408174
0.403208
8.07067
6.69608
5.69885
4.94658
4.36122
3.89414
3.51361
3.19816
2.93275
2.7066
2.51176
2.34227
2.19357
2.06213
1.94514
1.8404
1.74609
1.66076
1.58321
1.51242
1.44757
1.38794
1.33294
1.28205
1.23484
1.19092
1.14997
1.1117
1.07585
1.04221
1.01057
0.980774
0.952659
0.926088
0.90094
0.877103
0.854479
0.832978
0.812519
0.793029
0.774441
0.756695
0.739734
0.723508
0.707972
0.693081
0.678797
0.665084
0.651909
0.63924
0.627049
0.615311
0.603999
0.593092
0.582569
0.572409
0.562594
0.553107