/*--------------------------------*- C++ -*----------------------------------*\
| =========                 |                                                 |
| \\      /  F ield         | OpenFOAM: The Open Source CFD Toolbox           |
|  \\    /   O peration     | Version:  2512                                  |
|   \\  /    A nd           | Website:  www.openfoam.com                      |
|    \\/     M anipulation  |                                                 |
\*---------------------------------------------------------------------------*/
FoamFile
{
    version     2.0;
    format      ascii;
    arch        "LSB;label=32;scalar=64";
    class       volScalarField;
    location    "162";
    object      p;
}
// * * * * * * * * * * * * * * * * * * * * * * * * * * * * * * * * * * * * * //

dimensions      [0 2 -2 0 0 0 0];

internalField   nonuniform List<scalar> 
220594
(
4.29441e-06
4.29103e-06
4.28217e-06
4.26793e-06
4.24807e-06
4.22176e-06
4.1879e-06
4.14515e-06
4.0919e-06
4.02623e-06
3.94591e-06
3.84838e-06
3.73079e-06
3.59007e-06
3.42296e-06
3.22624e-06
2.99686e-06
2.73229e-06
2.43083e-06
2.0921e-06
1.71746e-06
1.31053e-06
8.7754e-07
4.27596e-07
-2.73897e-08
-4.7314e-07
-8.93887e-07
-1.27369e-06
-1.59801e-06
-1.85539e-06
-2.03882e-06
-2.14651e-06
-2.18197e-06
-2.15316e-06
-2.07125e-06
-1.94891e-06
-1.79893e-06
-1.633e-06
-1.46103e-06
-1.29084e-06
-1.12817e-06
-9.76854e-07
-8.39151e-07
-7.16063e-07
-6.07656e-07
-5.13354e-07
-4.32165e-07
-3.62869e-07
-3.04147e-07
-2.54681e-07
-2.13215e-07
-1.78588e-07
-1.49757e-07
-1.25802e-07
-1.05925e-07
-8.94404e-08
-7.57659e-08
-6.44119e-08
-5.49686e-08
-4.70958e-08
-4.05117e-08
-3.49842e-08
-3.03229e-08
-2.63719e-08
-2.3004e-08
-2.01153e-08
-1.76213e-08
-1.54527e-08
-1.35527e-08
-1.18743e-08
-1.03787e-08
-9.03383e-09
-7.81263e-09
-6.69258e-09
-5.65461e-09
-4.68253e-09
-3.76154e-09
-2.88285e-09
-2.00412e-09
-1.44945e-09
4.29544e-06
4.29209e-06
4.28332e-06
4.26922e-06
4.24954e-06
4.22347e-06
4.18991e-06
4.14752e-06
4.0947e-06
4.02953e-06
3.94978e-06
3.85289e-06
3.73599e-06
3.59598e-06
3.42959e-06
3.23352e-06
3.00469e-06
2.74046e-06
2.43906e-06
2.09999e-06
1.72451e-06
1.31616e-06
8.81115e-07
4.28515e-07
-2.96298e-08
-4.78841e-07
-9.03067e-07
-1.28601e-06
-1.61281e-06
-1.87169e-06
-2.05549e-06
-2.16243e-06
-2.19616e-06
-2.16496e-06
-2.0803e-06
-1.95519e-06
-1.80266e-06
-1.63455e-06
-1.46084e-06
-1.28936e-06
-1.12581e-06
-9.73962e-07
-8.36012e-07
-7.12884e-07
-6.04587e-07
-5.10489e-07
-4.29558e-07
-3.60544e-07
-3.02108e-07
-2.52917e-07
-2.11705e-07
-1.77308e-07
-1.4868e-07
-1.24902e-07
-1.05176e-07
-8.88207e-08
-7.52549e-08
-6.39918e-08
-5.46242e-08
-4.68139e-08
-4.02814e-08
-3.47963e-08
-3.01697e-08
-2.6247e-08
-2.29021e-08
-2.00322e-08
-1.75536e-08
-1.53975e-08
-1.35077e-08
-1.18378e-08
-1.03492e-08
-9.01009e-09
-7.79379e-09
-6.67792e-09
-5.64354e-09
-4.67459e-09
-3.75632e-09
-2.87893e-09
-2.00367e-09
-1.42696e-09
4.29746e-06
4.29417e-06
4.28558e-06
4.27174e-06
4.25243e-06
4.22683e-06
4.19386e-06
4.15218e-06
4.10021e-06
4.03603e-06
3.9574e-06
3.86175e-06
3.74621e-06
3.60762e-06
3.44264e-06
3.24789e-06
3.02015e-06
2.75664e-06
2.45537e-06
2.11565e-06
1.73853e-06
1.32738e-06
8.88302e-07
4.30453e-07
-3.39489e-08
-4.90035e-07
-9.21182e-07
-1.31041e-06
-1.64213e-06
-1.90403e-06
-2.08857e-06
-2.19401e-06
-2.22432e-06
-2.18835e-06
-2.09824e-06
-1.96763e-06
-1.81002e-06
-1.63758e-06
-1.46043e-06
-1.2864e-06
-1.12111e-06
-9.68232e-07
-8.29794e-07
-7.06592e-07
-5.98511e-07
-5.04818e-07
-4.244e-07
-3.55946e-07
-2.98076e-07
-2.49428e-07
-2.08718e-07
-1.74774e-07
-1.46547e-07
-1.23119e-07
-1.03693e-07
-8.75928e-08
-7.42419e-08
-6.31586e-08
-5.39406e-08
-4.62541e-08
-3.98235e-08
-3.44222e-08
-2.98641e-08
-2.59973e-08
-2.2698e-08
-1.98654e-08
-1.7417e-08
-1.52858e-08
-1.34163e-08
-1.1763e-08
-1.02882e-08
-8.96051e-09
-7.75382e-09
-6.64611e-09
-5.61869e-09
-4.65562e-09
-3.7421e-09
-2.86768e-09
-1.99365e-09
-1.40044e-09
4.30044e-06
4.29724e-06
4.28889e-06
4.27545e-06
4.25667e-06
4.23178e-06
4.19967e-06
4.15905e-06
4.10833e-06
4.04561e-06
3.96864e-06
3.87485e-06
3.76132e-06
3.62484e-06
3.46197e-06
3.26919e-06
3.04309e-06
2.78066e-06
2.47963e-06
2.13899e-06
1.75949e-06
1.34423e-06
8.99172e-07
4.33523e-07
-4.02088e-08
-5.06573e-07
-9.48092e-07
-1.34674e-06
-1.68588e-06
-1.95228e-06
-2.13793e-06
-2.24108e-06
-2.26622e-06
-2.22306e-06
-2.12477e-06
-1.98592e-06
-1.82076e-06
-1.6419e-06
-1.45965e-06
-1.28187e-06
-1.11405e-06
-9.59654e-07
-8.20523e-07
-6.97237e-07
-5.89496e-07
-4.96416e-07
-4.16767e-07
-3.4915e-07
-2.9212e-07
-2.44278e-07
-2.04313e-07
-1.7104e-07
-1.43406e-07
-1.20493e-07
-1.0151e-07
-8.57853e-08
-7.27512e-08
-6.19327e-08
-5.29348e-08
-4.54305e-08
-3.915e-08
-3.38718e-08
-2.94145e-08
-2.563e-08
-2.23977e-08
-1.96197e-08
-1.7216e-08
-1.51212e-08
-1.32815e-08
-1.16527e-08
-1.01981e-08
-8.88721e-09
-7.69464e-09
-6.59893e-09
-5.58176e-09
-4.62735e-09
-3.72095e-09
-2.85173e-09
-1.98092e-09
-1.37913e-09
4.30429e-06
4.30122e-06
4.29319e-06
4.28026e-06
4.26218e-06
4.23819e-06
4.20721e-06
4.16796e-06
4.11887e-06
4.05805e-06
3.98325e-06
3.89189e-06
3.78099e-06
3.64727e-06
3.48718e-06
3.29701e-06
3.07311e-06
2.81215e-06
2.5115e-06
2.16974e-06
1.78719e-06
1.36661e-06
9.13762e-07
4.37882e-07
-4.81459e-08
-5.28107e-07
-9.83389e-07
-1.39457e-06
-1.74356e-06
-2.01595e-06
-2.20305e-06
-2.3031e-06
-2.32129e-06
-2.26853e-06
-2.15936e-06
-2.00962e-06
-1.83451e-06
-1.64722e-06
-1.45834e-06
-1.27569e-06
-1.10461e-06
-9.48301e-07
-8.08313e-07
-6.84958e-07
-5.77694e-07
-4.8544e-07
-4.06812e-07
-3.40297e-07
-2.84372e-07
-2.37583e-07
-1.98591e-07
-1.66192e-07
-1.3933e-07
-1.17087e-07
-9.8679e-08
-8.34424e-08
-7.08192e-08
-6.03442e-08
-5.16318e-08
-4.43635e-08
-3.82774e-08
-3.31587e-08
-2.88319e-08
-2.51539e-08
-2.20084e-08
-1.93012e-08
-1.69552e-08
-1.49076e-08
-1.31066e-08
-1.15094e-08
-1.00809e-08
-8.79184e-09
-7.61764e-09
-6.53758e-09
-5.5338e-09
-4.59078e-09
-3.69388e-09
-2.83218e-09
-1.967e-09
-1.36334e-09
4.30893e-06
4.306e-06
4.29836e-06
4.28605e-06
4.26882e-06
4.24591e-06
4.2163e-06
4.17871e-06
4.1316e-06
4.07308e-06
4.00092e-06
3.9125e-06
3.80482e-06
3.67449e-06
3.51781e-06
3.33087e-06
3.10973e-06
2.85066e-06
2.55059e-06
2.20757e-06
1.82143e-06
1.39446e-06
9.32144e-07
4.43748e-07
-5.74091e-08
-5.54184e-07
-1.02655e-06
-1.45334e-06
-1.81462e-06
-2.09447e-06
-2.28331e-06
-2.37941e-06
-2.38887e-06
-2.32409e-06
-2.20137e-06
-2.03815e-06
-1.8508e-06
-1.65324e-06
-1.4563e-06
-1.26779e-06
-1.09282e-06
-9.34258e-07
-7.93303e-07
-6.69926e-07
-5.63291e-07
-4.72078e-07
-3.94717e-07
-3.29559e-07
-2.74985e-07
-2.29483e-07
-1.91673e-07
-1.60337e-07
-1.3441e-07
-1.12978e-07
-9.52651e-08
-8.06183e-08
-6.84911e-08
-5.84306e-08
-5.00625e-08
-4.30788e-08
-3.72269e-08
-3.23004e-08
-2.81306e-08
-2.45808e-08
-2.15398e-08
-1.89177e-08
-1.66412e-08
-1.46503e-08
-1.28956e-08
-1.13365e-08
-9.93948e-09
-8.67664e-09
-7.52461e-09
-6.46349e-09
-5.47596e-09
-4.54683e-09
-3.66164e-09
-2.80957e-09
-1.95217e-09
-1.35153e-09
4.31424e-06
4.31148e-06
4.30429e-06
4.29268e-06
4.27642e-06
4.25477e-06
4.22673e-06
4.19105e-06
4.14621e-06
4.09036e-06
4.02125e-06
3.93626e-06
3.83231e-06
3.70594e-06
3.55327e-06
3.37016e-06
3.1523e-06
2.89556e-06
2.59632e-06
2.25202e-06
1.86186e-06
1.42759e-06
9.54326e-07
4.5133e-07
-6.76001e-08
-5.84242e-07
-1.0769e-06
-1.52227e-06
-1.89823e-06
-2.18696e-06
-2.37781e-06
-2.46909e-06
-2.46799e-06
-2.38881e-06
-2.24996e-06
-2.0708e-06
-1.86909e-06
-1.65955e-06
-1.4533e-06
-1.25809e-06
-1.07872e-06
-9.1766e-07
-7.75687e-07
-6.52372e-07
-5.46535e-07
-4.56579e-07
-3.8072e-07
-3.17156e-07
-2.64162e-07
-2.20155e-07
-1.83717e-07
-1.53608e-07
-1.2876e-07
-1.08263e-07
-9.135e-08
-7.7381e-08
-6.58235e-08
-5.62386e-08
-4.82652e-08
-4.16078e-08
-3.60244e-08
-3.13179e-08
-2.7328e-08
-2.39248e-08
-2.10034e-08
-1.84787e-08
-1.62816e-08
-1.43556e-08
-1.26541e-08
-1.11386e-08
-9.77762e-09
-8.54492e-09
-7.4184e-09
-6.37913e-09
-5.41043e-09
-4.49744e-09
-3.62593e-09
-2.78526e-09
-1.93732e-09
-1.34268e-09
4.32009e-06
4.31753e-06
4.31083e-06
4.3e-06
4.28481e-06
4.26455e-06
4.23825e-06
4.20469e-06
4.16239e-06
4.1095e-06
4.0438e-06
3.96263e-06
3.86288e-06
3.74097e-06
3.59285e-06
3.4141e-06
3.20006e-06
2.94609e-06
2.64796e-06
2.30244e-06
1.908e-06
1.46571e-06
9.80259e-07
4.60833e-07
-7.82612e-08
-6.17597e-07
-1.13355e-06
-1.60038e-06
-1.9933e-06
-2.29227e-06
-2.48537e-06
-2.57092e-06
-2.55748e-06
-2.46157e-06
-2.30413e-06
-2.10674e-06
-1.88876e-06
-1.66576e-06
-1.44916e-06
-1.24656e-06
-1.06241e-06
-8.98707e-07
-7.55728e-07
-6.32591e-07
-5.27732e-07
-4.39243e-07
-3.65106e-07
-3.03351e-07
-2.52137e-07
-2.09806e-07
-1.74901e-07
-1.4616e-07
-1.22512e-07
-1.03053e-07
-8.70266e-08
-7.3808e-08
-6.28807e-08
-5.38213e-08
-4.6284e-08
-3.99865e-08
-3.46992e-08
-3.02353e-08
-2.64436e-08
-2.3202e-08
-2.04122e-08
-1.79947e-08
-1.58851e-08
-1.40305e-08
-1.23873e-08
-1.09198e-08
-9.59849e-09
-8.399e-09
-7.30067e-09
-6.28562e-09
-5.33784e-09
-4.44283e-09
-3.5866e-09
-2.75872e-09
-1.92145e-09
-1.33468e-09
4.32635e-06
4.32399e-06
4.31781e-06
4.30782e-06
4.29379e-06
4.27502e-06
4.25059e-06
4.21932e-06
4.17974e-06
4.13005e-06
4.06803e-06
3.99102e-06
3.89584e-06
3.77881e-06
3.6357e-06
3.4618e-06
3.25205e-06
3.00129e-06
2.70463e-06
2.35805e-06
1.9592e-06
1.5084e-06
1.00978e-06
4.72409e-07
-8.89156e-08
-6.53463e-07
-1.19547e-06
-1.68639e-06
-2.09842e-06
-2.4089e-06
-2.60442e-06
-2.68336e-06
-2.65582e-06
-2.54098e-06
-2.36269e-06
-2.14505e-06
-1.90914e-06
-1.67146e-06
-1.44369e-06
-1.23322e-06
-1.04406e-06
-8.7767e-07
-7.33758e-07
-6.10946e-07
-5.07249e-07
-4.20425e-07
-3.48207e-07
-2.88445e-07
-2.39178e-07
-1.98673e-07
-1.65429e-07
-1.38168e-07
-1.15815e-07
-9.74719e-08
-8.23988e-08
-6.99857e-08
-5.9734e-08
-5.12378e-08
-4.41672e-08
-3.82551e-08
-3.32844e-08
-2.908e-08
-2.55001e-08
-2.24311e-08
-1.97819e-08
-1.74789e-08
-1.54627e-08
-1.36843e-08
-1.21035e-08
-1.06872e-08
-9.40833e-09
-8.24439e-09
-7.17629e-09
-6.18729e-09
-5.26206e-09
-4.38647e-09
-3.54674e-09
-2.73261e-09
-1.90669e-09
-1.32844e-09
4.33285e-06
4.3307e-06
4.32508e-06
4.31596e-06
4.30313e-06
4.28593e-06
4.26345e-06
4.23457e-06
4.19785e-06
4.15153e-06
4.09339e-06
4.02077e-06
3.93045e-06
3.81862e-06
3.68088e-06
3.51223e-06
3.3072e-06
3.06006e-06
2.76521e-06
2.41781e-06
2.0146e-06
1.55503e-06
1.04259e-06
4.86128e-07
-9.9086e-08
-6.90956e-07
-1.2614e-06
-1.77874e-06
-2.21179e-06
-2.53492e-06
-2.733e-06
-2.80445e-06
-2.76121e-06
-2.62545e-06
-2.42432e-06
-2.18471e-06
-1.92956e-06
-1.67631e-06
-1.43681e-06
-1.2182e-06
-1.02395e-06
-8.54911e-07
-7.10194e-07
-5.87874e-07
-4.85519e-07
-4.00536e-07
-3.30401e-07
-2.72778e-07
-2.25586e-07
-1.87017e-07
-1.55527e-07
-1.29824e-07
-1.08829e-07
-9.16563e-08
-7.75799e-08
-6.60081e-08
-5.64612e-08
-4.85517e-08
-4.19672e-08
-3.64559e-08
-3.18145e-08
-2.78795e-08
-2.45195e-08
-2.16297e-08
-1.91262e-08
-1.6942e-08
-1.50225e-08
-1.33231e-08
-1.18069e-08
-1.04437e-08
-9.20879e-09
-8.08177e-09
-7.04514e-09
-6.08334e-09
-5.18174e-09
-4.32657e-09
-3.50418e-09
-2.70447e-09
-1.89036e-09
-1.32133e-09
4.33944e-06
4.33751e-06
4.33244e-06
4.32422e-06
4.31261e-06
4.297e-06
4.27652e-06
4.25008e-06
4.21629e-06
4.17342e-06
4.11928e-06
4.05118e-06
3.96588e-06
3.85947e-06
3.72735e-06
3.56425e-06
3.36427e-06
3.12111e-06
2.82843e-06
2.48052e-06
2.07313e-06
1.60479e-06
1.07821e-06
5.01934e-07
-1.08333e-07
-7.29115e-07
-1.32987e-06
-1.87556e-06
-2.33123e-06
-2.66796e-06
-2.86866e-06
-2.93184e-06
-2.87148e-06
-2.71312e-06
-2.48755e-06
-2.22467e-06
-1.94938e-06
-1.68e-06
-1.42851e-06
-1.20169e-06
-1.00242e-06
-8.30885e-07
-6.85534e-07
-5.63881e-07
-4.6303e-07
-3.80032e-07
-3.12101e-07
-2.56719e-07
-2.11685e-07
-1.75116e-07
-1.45434e-07
-1.21328e-07
-1.01725e-07
-8.57477e-08
-7.26879e-08
-6.19731e-08
-5.31433e-08
-4.58303e-08
-3.97396e-08
-3.46352e-08
-3.03279e-08
-2.66663e-08
-2.35293e-08
-2.0821e-08
-1.84653e-08
-1.64014e-08
-1.458e-08
-1.29606e-08
-1.15098e-08
-1.02003e-08
-9.0099e-09
-7.92026e-09
-6.91556e-09
-5.98139e-09
-5.10386e-09
-4.26949e-09
-3.46472e-09
-2.67953e-09
-1.87706e-09
-1.31666e-09
4.34596e-06
4.34424e-06
4.33973e-06
4.33239e-06
4.322e-06
4.30797e-06
4.28947e-06
4.26547e-06
4.23461e-06
4.19518e-06
4.14504e-06
4.0815e-06
4.00127e-06
3.90035e-06
3.77398e-06
3.61659e-06
3.42188e-06
3.18298e-06
2.89281e-06
2.54472e-06
2.13349e-06
1.65659e-06
1.11592e-06
5.19612e-07
-1.16287e-07
-7.66933e-07
-1.39925e-06
-1.97464e-06
-2.45411e-06
-2.80512e-06
-3.00847e-06
-3.06272e-06
-2.98413e-06
-2.80192e-06
-2.55081e-06
-2.26389e-06
-1.96801e-06
-1.68235e-06
-1.41892e-06
-1.18405e-06
-9.79976e-07
-8.06151e-07
-6.60365e-07
-5.39546e-07
-4.40331e-07
-3.59417e-07
-2.93761e-07
-2.40667e-07
-1.9782e-07
-1.63269e-07
-1.35401e-07
-1.12895e-07
-9.46803e-08
-7.98942e-08
-6.78452e-08
-5.7981e-08
-4.98622e-08
-4.31399e-08
-3.75376e-08
-3.28355e-08
-2.88582e-08
-2.54663e-08
-2.25492e-08
-2.00198e-08
-1.78097e-08
-1.58644e-08
-1.41395e-08
-1.25989e-08
-1.12124e-08
-9.95581e-09
-8.80925e-09
-7.75655e-09
-6.78349e-09
-5.87684e-09
-5.02336e-09
-4.20987e-09
-3.42281e-09
-2.6522e-09
-1.86138e-09
-1.30997e-09
4.35224e-06
4.35073e-06
4.34676e-06
4.34028e-06
4.33106e-06
4.31856e-06
4.30199e-06
4.28035e-06
4.25233e-06
4.21627e-06
4.17004e-06
4.11097e-06
4.03572e-06
3.94024e-06
3.81958e-06
3.66792e-06
3.47857e-06
3.24409e-06
2.95668e-06
2.60878e-06
2.19412e-06
1.70913e-06
1.15479e-06
5.38755e-07
-1.22691e-07
-8.03395e-07
-1.46774e-06
-2.07346e-06
-2.57735e-06
-2.94301e-06
-3.14898e-06
-3.19385e-06
-3.09633e-06
-2.88959e-06
-2.61247e-06
-2.30133e-06
-1.98497e-06
-1.68331e-06
-1.40829e-06
-1.16574e-06
-9.57193e-07
-7.81357e-07
-6.35342e-07
-5.15499e-07
-4.18007e-07
-3.3922e-07
-2.75848e-07
-2.2503e-07
-1.84342e-07
-1.51774e-07
-1.25682e-07
-1.04736e-07
-8.78733e-08
-7.4244e-08
-6.31753e-08
-5.4135e-08
-4.67039e-08
-4.05527e-08
-3.54223e-08
-3.11086e-08
-2.74497e-08
-2.43179e-08
-2.16127e-08
-1.92557e-08
-1.71859e-08
-1.53546e-08
-1.37227e-08
-1.22578e-08
-1.09331e-08
-9.72713e-09
-8.62254e-09
-7.60515e-09
-6.66238e-09
-5.78208e-09
-4.95168e-09
-4.1582e-09
-3.38808e-09
-2.63123e-09
-1.85106e-09
-1.30713e-09
4.35813e-06
4.35681e-06
4.35335e-06
4.34767e-06
4.33957e-06
4.32851e-06
4.31376e-06
4.29435e-06
4.26902e-06
4.23615e-06
4.19364e-06
4.13881e-06
4.06834e-06
3.97807e-06
3.86293e-06
3.71687e-06
3.53279e-06
3.30276e-06
3.01827e-06
2.67087e-06
2.25329e-06
1.76087e-06
1.19367e-06
5.58752e-07
-1.27426e-07
-8.37517e-07
-1.53343e-06
-2.16927e-06
-2.6975e-06
-3.07779e-06
-3.28625e-06
-3.32158e-06
-3.20499e-06
-2.97373e-06
-2.67089e-06
-2.33605e-06
-1.99989e-06
-1.68295e-06
-1.39702e-06
-1.14736e-06
-9.34774e-07
-7.57238e-07
-6.11189e-07
-4.92422e-07
-3.9668e-07
-3.19996e-07
-2.5885e-07
-2.10228e-07
-1.71611e-07
-1.40935e-07
-1.1653e-07
-9.70637e-08
-8.14781e-08
-6.89397e-08
-5.87937e-08
-5.05278e-08
-4.37423e-08
-3.81265e-08
-3.34381e-08
-2.94879e-08
-2.61267e-08
-2.32379e-08
-2.07306e-08
-1.85345e-08
-1.65956e-08
-1.48709e-08
-1.33258e-08
-1.19316e-08
-1.06646e-08
-9.506e-09
-8.44071e-09
-7.45652e-09
-6.54234e-09
-5.68707e-09
-4.8787e-09
-4.10445e-09
-3.35066e-09
-2.60712e-09
-1.83733e-09
-1.30121e-09
4.36349e-06
4.36235e-06
4.35934e-06
4.3544e-06
4.34731e-06
4.33757e-06
4.32448e-06
4.30711e-06
4.28425e-06
4.2543e-06
4.21521e-06
4.16431e-06
4.09825e-06
4.01283e-06
3.90285e-06
3.76203e-06
3.58298e-06
3.35726e-06
3.0757e-06
2.72907e-06
2.3091e-06
1.81009e-06
1.23116e-06
5.78789e-07
-1.30535e-07
-8.68393e-07
-1.59439e-06
-2.25911e-06
-2.8108e-06
-3.20519e-06
-3.41601e-06
-3.44196e-06
-3.30682e-06
-3.0519e-06
-2.72446e-06
-2.36723e-06
-2.01256e-06
-1.68151e-06
-1.38564e-06
-1.1296e-06
-9.13491e-07
-7.34576e-07
-5.88656e-07
-4.71007e-07
-3.76972e-07
-3.02291e-07
-2.43239e-07
-1.96666e-07
-1.5997e-07
-1.31041e-07
-1.0819e-07
-9.00814e-08
-7.56662e-08
-6.41255e-08
-5.48222e-08
-4.72626e-08
-4.10653e-08
-3.59369e-08
-3.16506e-08
-2.80308e-08
-2.49401e-08
-2.22718e-08
-1.99439e-08
-1.78937e-08
-1.60732e-08
-1.44449e-08
-1.29781e-08
-1.16475e-08
-1.04323e-08
-9.31602e-09
-8.28576e-09
-7.33107e-09
-6.44229e-09
-5.60926e-09
-4.82048e-09
-4.06329e-09
-3.32393e-09
-2.59197e-09
-1.83083e-09
-1.30029e-09
4.36817e-06
4.36719e-06
4.36458e-06
4.36029e-06
4.35409e-06
4.3455e-06
4.33387e-06
4.3183e-06
4.29761e-06
4.27025e-06
4.23417e-06
4.18675e-06
4.12462e-06
4.04352e-06
3.93816e-06
3.80209e-06
3.62761e-06
3.40587e-06
3.12713e-06
2.78142e-06
2.35957e-06
1.85495e-06
1.26577e-06
5.97885e-07
-1.3222e-07
-8.95237e-07
-1.6487e-06
-2.33997e-06
-2.91333e-06
-3.32078e-06
-3.53372e-06
-3.55088e-06
-3.39848e-06
-3.1217e-06
-2.77173e-06
-2.39418e-06
-2.02292e-06
-1.67935e-06
-1.37477e-06
-1.11324e-06
-8.94171e-07
-7.14185e-07
-5.68507e-07
-4.51949e-07
-3.59499e-07
-2.86641e-07
-2.29475e-07
-1.84734e-07
-1.49747e-07
-1.22365e-07
-1.00885e-07
-8.39711e-08
-7.05837e-08
-5.99175e-08
-5.13516e-08
-4.44092e-08
-3.87253e-08
-3.40218e-08
-3.00858e-08
-2.67536e-08
-2.38981e-08
-2.14217e-08
-1.92497e-08
-1.73262e-08
-1.56087e-08
-1.40643e-08
-1.26658e-08
-1.13908e-08
-1.02208e-08
-9.14157e-09
-8.14201e-09
-7.21332e-09
-6.34705e-09
-5.53388e-09
-4.76271e-09
-4.02096e-09
-3.29475e-09
-2.57343e-09
-1.82038e-09
-1.29573e-09
4.37207e-06
4.37121e-06
4.36894e-06
4.36519e-06
4.35973e-06
4.35211e-06
4.3417e-06
4.32763e-06
4.30876e-06
4.28356e-06
4.25002e-06
4.20552e-06
4.1467e-06
4.06926e-06
3.96783e-06
3.83581e-06
3.66526e-06
3.44699e-06
3.17078e-06
2.82601e-06
2.40278e-06
1.89361e-06
1.2959e-06
6.1496e-07
-1.32822e-07
-9.17415e-07
-1.69461e-06
-2.40894e-06
-3.00122e-06
-3.4201e-06
-3.63487e-06
-3.64428e-06
-3.47671e-06
-3.18084e-06
-2.81137e-06
-2.41639e-06
-2.03102e-06
-1.67693e-06
-1.36509e-06
-1.09905e-06
-8.77622e-07
-6.96846e-07
-5.51463e-07
-4.35891e-07
-3.44825e-07
-2.73534e-07
-2.17973e-07
-1.74784e-07
-1.41237e-07
-1.15155e-07
-9.48249e-08
-7.89108e-08
-6.63817e-08
-5.64447e-08
-4.84929e-08
-4.20637e-08
-3.68063e-08
-3.24555e-08
-2.88099e-08
-2.57158e-08
-2.30549e-08
-2.07367e-08
-1.86932e-08
-1.68739e-08
-1.52411e-08
-1.37653e-08
-1.24226e-08
-1.11926e-08
-1.00592e-08
-9.00957e-09
-8.03448e-09
-7.1264e-09
-6.27794e-09
-5.48047e-09
-4.72321e-09
-3.99365e-09
-3.27773e-09
-2.56458e-09
-1.81739e-09
-1.29609e-09
4.37508e-06
4.37432e-06
4.37232e-06
4.36898e-06
4.36409e-06
4.35722e-06
4.34775e-06
4.33485e-06
4.31739e-06
4.29388e-06
4.26231e-06
4.2201e-06
4.16386e-06
4.08928e-06
3.99094e-06
3.86211e-06
3.69469e-06
3.4792e-06
3.20506e-06
2.86115e-06
2.43696e-06
1.92435e-06
1.32007e-06
6.28929e-07
-1.32764e-07
-9.34456e-07
-1.73056e-06
-2.46339e-06
-3.0709e-06
-3.49901e-06
-3.71525e-06
-3.71837e-06
-3.53855e-06
-3.22734e-06
-2.84228e-06
-2.43348e-06
-2.03702e-06
-1.67473e-06
-1.35729e-06
-1.08781e-06
-8.64605e-07
-6.83279e-07
-5.38178e-07
-4.23413e-07
-3.3345e-07
-2.63395e-07
-2.09093e-07
-1.67113e-07
-1.34685e-07
-1.09611e-07
-9.01689e-08
-7.50259e-08
-6.31576e-08
-5.37812e-08
-4.63006e-08
-4.02648e-08
-3.53338e-08
-3.12526e-08
-2.78289e-08
-2.49167e-08
-2.24042e-08
-2.02067e-08
-1.82612e-08
-1.65213e-08
-1.4953e-08
-1.35298e-08
-1.22296e-08
-1.10343e-08
-9.92878e-09
-8.90201e-09
-7.94576e-09
-7.05365e-09
-6.21909e-09
-5.43397e-09
-4.68775e-09
-3.96793e-09
-3.26028e-09
-2.55375e-09
-1.81146e-09
-1.2935e-09
4.37713e-06
4.37644e-06
4.37461e-06
4.37155e-06
4.36706e-06
4.3607e-06
4.35188e-06
4.33977e-06
4.32328e-06
4.30091e-06
4.2707e-06
4.23005e-06
4.17558e-06
4.10298e-06
4.00677e-06
3.88014e-06
3.71489e-06
3.50135e-06
3.22867e-06
2.8854e-06
2.46062e-06
1.94571e-06
1.33695e-06
6.3882e-07
-1.32481e-07
-9.46044e-07
-1.75535e-06
-2.50113e-06
-3.11935e-06
-3.55397e-06
-3.77127e-06
-3.76997e-06
-3.58153e-06
-3.25956e-06
-2.86363e-06
-2.44524e-06
-2.04113e-06
-1.67321e-06
-1.35195e-06
-1.08013e-06
-8.55749e-07
-6.7407e-07
-5.2918e-07
-4.14978e-07
-3.25775e-07
-2.56568e-07
-2.03124e-07
-1.61968e-07
-1.30299e-07
-1.05908e-07
-8.70662e-08
-7.24438e-08
-6.10209e-08
-5.20217e-08
-4.48577e-08
-3.90856e-08
-3.43729e-08
-3.04717e-08
-2.71957e-08
-2.44042e-08
-2.199e-08
-1.98721e-08
-1.79909e-08
-1.6303e-08
-1.47766e-08
-1.33873e-08
-1.21145e-08
-1.09411e-08
-9.85318e-09
-8.84054e-09
-7.89584e-09
-7.01341e-09
-6.18725e-09
-5.40958e-09
-4.67004e-09
-3.95607e-09
-3.25334e-09
-2.55062e-09
-1.81089e-09
-1.29407e-09
4.37816e-06
4.37751e-06
4.37577e-06
4.37286e-06
4.36856e-06
4.36246e-06
4.35397e-06
4.34227e-06
4.32626e-06
4.30448e-06
4.27495e-06
4.23509e-06
4.18153e-06
4.10993e-06
4.0148e-06
3.88931e-06
3.72516e-06
3.51262e-06
3.2407e-06
2.89778e-06
2.4727e-06
1.95663e-06
1.3456e-06
6.43896e-07
-1.3233e-07
-9.51999e-07
-1.76811e-06
-2.5206e-06
-3.1444e-06
-3.58242e-06
-3.80029e-06
-3.79673e-06
-3.60385e-06
-3.27635e-06
-2.87482e-06
-2.45153e-06
-2.04352e-06
-1.67272e-06
-1.34951e-06
-1.07651e-06
-8.51513e-07
-6.69642e-07
-5.24844e-07
-4.10913e-07
-3.22079e-07
-2.53284e-07
-2.00259e-07
-1.59503e-07
-1.28205e-07
-1.04145e-07
-8.55949e-08
-7.12243e-08
-6.00164e-08
-5.11984e-08
-4.4186e-08
-3.85395e-08
-3.39305e-08
-3.01142e-08
-2.69076e-08
-2.41725e-08
-2.18039e-08
-1.97227e-08
-1.7871e-08
-1.62067e-08
-1.46993e-08
-1.33251e-08
-1.20645e-08
-1.09008e-08
-9.82062e-09
-8.81404e-09
-7.87423e-09
-6.99589e-09
-6.1733e-09
-5.39886e-09
-4.66224e-09
-3.95085e-09
-3.25026e-09
-2.54913e-09
-1.81037e-09
-1.29391e-09
4.37816e-06
4.3775e-06
4.37577e-06
4.37285e-06
4.36855e-06
4.36246e-06
4.35396e-06
4.34226e-06
4.32626e-06
4.30447e-06
4.27494e-06
4.23508e-06
4.18152e-06
4.10992e-06
4.01478e-06
3.88929e-06
3.72514e-06
3.51259e-06
3.24066e-06
2.89773e-06
2.47265e-06
1.95655e-06
1.3455e-06
6.4376e-07
-1.32512e-07
-9.5224e-07
-1.76842e-06
-2.52099e-06
-3.14487e-06
-3.58298e-06
-3.80092e-06
-3.7974e-06
-3.60456e-06
-3.27708e-06
-2.87558e-06
-2.45229e-06
-2.04427e-06
-1.67346e-06
-1.35022e-06
-1.07717e-06
-8.5213e-07
-6.70211e-07
-5.25364e-07
-4.11384e-07
-3.22504e-07
-2.53666e-07
-2.00601e-07
-1.59808e-07
-1.28477e-07
-1.04386e-07
-8.58087e-08
-7.14135e-08
-6.01835e-08
-5.13458e-08
-4.43157e-08
-3.86534e-08
-3.40302e-08
-3.02014e-08
-2.69836e-08
-2.42388e-08
-2.18615e-08
-1.97728e-08
-1.79144e-08
-1.62442e-08
-1.47317e-08
-1.33531e-08
-1.20886e-08
-1.09215e-08
-9.83821e-09
-8.8289e-09
-7.88664e-09
-7.00614e-09
-6.18168e-09
-5.40564e-09
-4.66765e-09
-3.95503e-09
-3.2533e-09
-2.55109e-09
-1.81131e-09
-1.2939e-09
4.37711e-06
4.37643e-06
4.3746e-06
4.37154e-06
4.36704e-06
4.36068e-06
4.35186e-06
4.33976e-06
4.32326e-06
4.30089e-06
4.27068e-06
4.23002e-06
4.17555e-06
4.10294e-06
4.00672e-06
3.88009e-06
3.71482e-06
3.50126e-06
3.22856e-06
2.88527e-06
2.46045e-06
1.94548e-06
1.33665e-06
6.3841e-07
-1.33027e-07
-9.46764e-07
-1.75628e-06
-2.5023e-06
-3.12078e-06
-3.55564e-06
-3.77313e-06
-3.77198e-06
-3.58365e-06
-3.26176e-06
-2.86587e-06
-2.44751e-06
-2.04338e-06
-1.6754e-06
-1.35405e-06
-1.08211e-06
-8.57591e-07
-6.75767e-07
-5.30731e-07
-4.16386e-07
-3.27046e-07
-2.57709e-07
-2.04147e-07
-1.6288e-07
-1.31112e-07
-1.0663e-07
-8.77069e-08
-7.30112e-08
-6.15227e-08
-5.24646e-08
-4.52479e-08
-3.94286e-08
-3.46738e-08
-3.07351e-08
-2.7426e-08
-2.46054e-08
-2.21655e-08
-2.00251e-08
-1.8124e-08
-1.64186e-08
-1.4877e-08
-1.34743e-08
-1.21899e-08
-1.10062e-08
-9.90918e-09
-8.88836e-09
-7.93634e-09
-7.04746e-09
-6.21569e-09
-5.43319e-09
-4.68946e-09
-3.97175e-09
-3.26554e-09
-2.55948e-09
-1.81649e-09
-1.29629e-09
4.37506e-06
4.3743e-06
4.37229e-06
4.36895e-06
4.36406e-06
4.35719e-06
4.34772e-06
4.33482e-06
4.31736e-06
4.29384e-06
4.26227e-06
4.22005e-06
4.1638e-06
4.08922e-06
3.99086e-06
3.86201e-06
3.69457e-06
3.47906e-06
3.20487e-06
2.86092e-06
2.43666e-06
1.92396e-06
1.31955e-06
6.28242e-07
-1.33676e-07
-9.35652e-07
-1.73211e-06
-2.46532e-06
-3.07324e-06
-3.50174e-06
-3.71831e-06
-3.72168e-06
-3.54203e-06
-3.23095e-06
-2.84597e-06
-2.43721e-06
-2.04072e-06
-1.67833e-06
-1.36074e-06
-1.09106e-06
-8.67639e-07
-6.86077e-07
-5.40737e-07
-4.25737e-07
-3.35549e-07
-2.65283e-07
-2.10784e-07
-1.68624e-07
-1.36031e-07
-1.10807e-07
-9.12301e-08
-7.59658e-08
-6.39888e-08
-5.45149e-08
-4.69469e-08
-4.08327e-08
-3.58318e-08
-3.16884e-08
-2.82097e-08
-2.5249e-08
-2.26939e-08
-2.04589e-08
-1.84803e-08
-1.67115e-08
-1.51178e-08
-1.36723e-08
-1.23527e-08
-1.11403e-08
-1.00197e-08
-8.97931e-09
-8.01095e-09
-7.10817e-09
-6.26434e-09
-5.47124e-09
-4.7181e-09
-3.99207e-09
-3.27867e-09
-2.56665e-09
-1.81907e-09
-1.2958e-09
4.37204e-06
4.37118e-06
4.36891e-06
4.36516e-06
4.35969e-06
4.35207e-06
4.34166e-06
4.32759e-06
4.30871e-06
4.28351e-06
4.24996e-06
4.20545e-06
4.14662e-06
4.06916e-06
3.96772e-06
3.83567e-06
3.66509e-06
3.44678e-06
3.17052e-06
2.82568e-06
2.40235e-06
1.89305e-06
1.29517e-06
6.1399e-07
-1.34101e-07
-9.19084e-07
-1.69674e-06
-2.41161e-06
-3.00444e-06
-3.42384e-06
-3.63905e-06
-3.6488e-06
-3.48147e-06
-3.18578e-06
-2.81642e-06
-2.42149e-06
-2.03608e-06
-1.68187e-06
-1.36983e-06
-1.10353e-06
-8.81795e-07
-7.007e-07
-5.54993e-07
-4.39101e-07
-3.47727e-07
-2.76146e-07
-2.20316e-07
-1.76878e-07
-1.43104e-07
-1.16816e-07
-9.62992e-08
-8.02174e-08
-6.75377e-08
-5.74657e-08
-4.93928e-08
-4.2855e-08
-3.75006e-08
-3.30634e-08
-2.93415e-08
-2.61801e-08
-2.34599e-08
-2.10896e-08
-1.90001e-08
-1.71404e-08
-1.54722e-08
-1.39655e-08
-1.25956e-08
-1.13419e-08
-1.01873e-08
-9.11888e-09
-8.12698e-09
-7.20409e-09
-6.34277e-09
-5.53419e-09
-4.76727e-09
-4.02903e-09
-3.30503e-09
-2.58415e-09
-1.82946e-09
-1.30046e-09
4.36813e-06
4.36715e-06
4.36454e-06
4.36025e-06
4.35404e-06
4.34546e-06
4.33382e-06
4.31825e-06
4.29755e-06
4.27018e-06
4.23409e-06
4.18666e-06
4.12451e-06
4.04339e-06
3.93801e-06
3.80191e-06
3.62738e-06
3.40559e-06
3.12679e-06
2.78098e-06
2.359e-06
1.85422e-06
1.26481e-06
5.96626e-07
-1.33867e-07
-8.9737e-07
-1.65142e-06
-2.34333e-06
-2.91736e-06
-3.32545e-06
-3.53894e-06
-3.55652e-06
-3.40442e-06
-3.12786e-06
-2.77804e-06
-2.40055e-06
-2.02925e-06
-1.68553e-06
-1.3807e-06
-1.11885e-06
-8.99415e-07
-7.19036e-07
-5.72957e-07
-4.56001e-07
-3.63169e-07
-2.89948e-07
-2.32444e-07
-1.8739e-07
-1.52117e-07
-1.24475e-07
-1.02759e-07
-8.56331e-08
-7.20546e-08
-6.1217e-08
-5.24973e-08
-4.54168e-08
-3.96096e-08
-3.47963e-08
-3.07631e-08
-2.7345e-08
-2.44139e-08
-2.18709e-08
-1.96402e-08
-1.76651e-08
-1.59024e-08
-1.43184e-08
-1.28853e-08
-1.15798e-08
-1.03829e-08
-9.27963e-09
-8.25873e-09
-7.31127e-09
-6.42867e-09
-5.60139e-09
-4.8179e-09
-4.06508e-09
-3.32855e-09
-2.59735e-09
-1.83475e-09
-1.30044e-09
4.36344e-06
4.3623e-06
4.35929e-06
4.35435e-06
4.34726e-06
4.33751e-06
4.32442e-06
4.30704e-06
4.28417e-06
4.25422e-06
4.21511e-06
4.16419e-06
4.09811e-06
4.01267e-06
3.90265e-06
3.7618e-06
3.5827e-06
3.35691e-06
3.07527e-06
2.72852e-06
2.30839e-06
1.80918e-06
1.22997e-06
5.77236e-07
-1.32549e-07
-8.70977e-07
-1.59765e-06
-2.26312e-06
-2.81558e-06
-3.21071e-06
-3.42216e-06
-3.44861e-06
-3.31384e-06
-3.05918e-06
-2.73191e-06
-2.37475e-06
-2.02004e-06
-1.68882e-06
-1.39266e-06
-1.13626e-06
-9.19726e-07
-7.40354e-07
-5.93965e-07
-4.75851e-07
-3.81367e-07
-3.06257e-07
-2.46805e-07
-1.99861e-07
-1.62824e-07
-1.33584e-07
-1.10451e-07
-9.20875e-08
-7.74429e-08
-6.5696e-08
-5.62076e-08
-4.84819e-08
-4.21361e-08
-3.68753e-08
-3.24717e-08
-2.87481e-08
-2.5566e-08
-2.28172e-08
-2.04182e-08
-1.83055e-08
-1.64302e-08
-1.47538e-08
-1.3245e-08
-1.18775e-08
-1.06296e-08
-9.48433e-09
-8.42836e-09
-7.45108e-09
-6.54263e-09
-5.69256e-09
-4.88885e-09
-4.11819e-09
-3.36626e-09
-2.62225e-09
-1.84938e-09
-1.30687e-09
4.35808e-06
4.35676e-06
4.35329e-06
4.34762e-06
4.33951e-06
4.32845e-06
4.31369e-06
4.29427e-06
4.26893e-06
4.23605e-06
4.19352e-06
4.13868e-06
4.06818e-06
3.97788e-06
3.8627e-06
3.71658e-06
3.53245e-06
3.30233e-06
3.01773e-06
2.6702e-06
2.25243e-06
1.75977e-06
1.19223e-06
5.56904e-07
-1.29802e-07
-8.40538e-07
-1.53721e-06
-2.17388e-06
-2.70296e-06
-3.08406e-06
-3.29323e-06
-3.32912e-06
-3.21295e-06
-2.98199e-06
-2.67935e-06
-2.34459e-06
-2.00839e-06
-1.69127e-06
-1.40503e-06
-1.15497e-06
-9.41909e-07
-7.63865e-07
-6.17292e-07
-4.98001e-07
-4.01751e-07
-3.2458e-07
-2.62978e-07
-2.13931e-07
-1.74923e-07
-1.43889e-07
-1.19159e-07
-9.93977e-08
-8.35465e-08
-7.07691e-08
-6.04083e-08
-5.19495e-08
-4.49914e-08
-3.92215e-08
-3.43965e-08
-3.03253e-08
-2.68574e-08
-2.38746e-08
-2.12843e-08
-1.90152e-08
-1.70121e-08
-1.52311e-08
-1.36367e-08
-1.21992e-08
-1.08941e-08
-9.70171e-09
-8.60657e-09
-7.59616e-09
-6.65916e-09
-5.78408e-09
-4.9583e-09
-4.1683e-09
-3.39978e-09
-2.6421e-09
-1.85854e-09
-1.30845e-09
4.35218e-06
4.35067e-06
4.34669e-06
4.34021e-06
4.33099e-06
4.31849e-06
4.30191e-06
4.28026e-06
4.25223e-06
4.21615e-06
4.1699e-06
4.1108e-06
4.03553e-06
3.94001e-06
3.8193e-06
3.66759e-06
3.47816e-06
3.24358e-06
2.95604e-06
2.60798e-06
2.1931e-06
1.70783e-06
1.15312e-06
5.36612e-07
-1.2542e-07
-8.06832e-07
-1.47199e-06
-2.07862e-06
-2.58342e-06
-2.94995e-06
-3.15668e-06
-3.20217e-06
-3.10512e-06
-2.89871e-06
-2.62182e-06
-2.31076e-06
-1.99436e-06
-1.69251e-06
-1.41717e-06
-1.17419e-06
-9.65136e-07
-7.88752e-07
-6.42166e-07
-5.21751e-07
-4.237e-07
-3.44378e-07
-2.805e-07
-2.29209e-07
-1.88085e-07
-1.55116e-07
-1.28659e-07
-1.07382e-07
-9.02199e-08
-7.63209e-08
-6.50095e-08
-5.57512e-08
-4.81248e-08
-4.17991e-08
-3.65138e-08
-3.20628e-08
-2.82827e-08
-2.50439e-08
-2.22443e-08
-1.98042e-08
-1.76612e-08
-1.57657e-08
-1.40776e-08
-1.25632e-08
-1.11951e-08
-9.95073e-09
-8.81232e-09
-7.76527e-09
-6.79667e-09
-5.8939e-09
-5.04369e-09
-4.23224e-09
-3.44528e-09
-2.67222e-09
-1.87621e-09
-1.31606e-09
4.34589e-06
4.34417e-06
4.33966e-06
4.33232e-06
4.32192e-06
4.30788e-06
4.28938e-06
4.26536e-06
4.23449e-06
4.19505e-06
4.14488e-06
4.08131e-06
4.00105e-06
3.90008e-06
3.77366e-06
3.6162e-06
3.4214e-06
3.18238e-06
2.89206e-06
2.54379e-06
2.1323e-06
1.65508e-06
1.114e-06
5.17179e-07
-1.19356e-07
-7.70761e-07
-1.40394e-06
-1.98028e-06
-2.46071e-06
-2.81263e-06
-3.01679e-06
-3.0717e-06
-2.99362e-06
-2.81178e-06
-2.56091e-06
-2.27409e-06
-1.97818e-06
-1.69232e-06
-1.42855e-06
-1.19324e-06
-9.88632e-07
-8.14228e-07
-6.67837e-07
-5.46407e-07
-4.46592e-07
-3.651e-07
-2.98895e-07
-2.45287e-07
-2.01963e-07
-1.66973e-07
-1.38704e-07
-1.15833e-07
-9.72879e-08
-8.22036e-08
-6.9886e-08
-5.97803e-08
-5.14448e-08
-4.4529e-08
-3.87545e-08
-3.38996e-08
-2.97874e-08
-2.62763e-08
-2.32539e-08
-2.06317e-08
-1.83399e-08
-1.63228e-08
-1.4535e-08
-1.29391e-08
-1.15041e-08
-1.02048e-08