/*--------------------------------*- C++ -*----------------------------------*\
| =========                 |                                                 |
| \\      /  F ield         | OpenFOAM: The Open Source CFD Toolbox           |
|  \\    /   O peration     | Version:  2512                                  |
|   \\  /    A nd           | Website:  www.openfoam.com                      |
|    \\/     M anipulation  |                                                 |
\*---------------------------------------------------------------------------*/
FoamFile
{
    version     2.0;
    format      ascii;
    arch        "LSB;label=32;scalar=64";
    class       volScalarField;
    location    "128";
    object      p;
}
// * * * * * * * * * * * * * * * * * * * * * * * * * * * * * * * * * * * * * //

dimensions      [0 2 -2 0 0 0 0];

internalField   nonuniform List<scalar> 
240106
(
9.16642e-05
9.1516e-05
9.11384e-05
9.05327e-05
8.96893e-05
8.85742e-05
8.71396e-05
8.53283e-05
8.30719e-05
8.02898e-05
7.68881e-05
7.27604e-05
6.77894e-05
6.18489e-05
5.48093e-05
4.65438e-05
3.69389e-05
2.59076e-05
1.34059e-05
-5.4766e-07
-1.58511e-05
-3.22984e-05
-4.95639e-05
-6.71947e-05
-8.46176e-05
-0.000101163
-0.000116112
-0.000128759
-0.000138487
-0.000144847
-0.000147617
-0.000146834
-0.000142785
-0.000135961
-0.000126988
-0.000116538
-0.000105261
-9.3726e-05
-8.23966e-05
-7.16177e-05
-6.16237e-05
-5.25526e-05
-4.44646e-05
-3.73612e-05
-3.1202e-05
-2.59199e-05
-2.14328e-05
-1.76518e-05
-1.44884e-05
-1.18577e-05
-9.68148e-06
-7.8895e-06
-6.41962e-06
-5.21789e-06
-4.23802e-06
-3.44075e-06
-2.79312e-06
-2.26773e-06
-1.84192e-06
-1.49706e-06
-1.2179e-06
-9.91929e-07
-8.08952e-07
-6.60689e-07
-5.40471e-07
-4.42947e-07
-3.6384e-07
-2.99707e-07
-2.47745e-07
-2.05627e-07
-1.71405e-07
-1.43424e-07
-1.20292e-07
-1.00831e-07
-8.40634e-08
-6.91656e-08
-5.54369e-08
-4.22346e-08
-2.87581e-08
-1.58553e-08
9.17064e-05
9.15594e-05
9.11855e-05
9.05856e-05
8.975e-05
8.86449e-05
8.72228e-05
8.54266e-05
8.31881e-05
8.04266e-05
7.70482e-05
7.29463e-05
6.80026e-05
6.20903e-05
5.50779e-05
4.68363e-05
3.72492e-05
2.62258e-05
1.37178e-05
-2.60807e-07
-1.56123e-05
-3.21341e-05
-4.95016e-05
-6.72603e-05
-8.48309e-05
-0.000101534
-0.000116636
-0.000129415
-0.000139238
-0.000145644
-0.000148404
-0.000147557
-0.000143401
-0.000136442
-0.000127323
-0.000116732
-0.000105329
-9.36925e-05
-8.22858e-05
-7.14537e-05
-6.14274e-05
-5.23413e-05
-4.42515e-05
-3.71557e-05
-3.10103e-05
-2.57456e-05
-2.12775e-05
-1.75158e-05
-1.43709e-05
-1.17573e-05
-9.59659e-06
-7.81829e-06
-6.36033e-06
-5.16883e-06
-4.19765e-06
-3.40769e-06
-2.76617e-06
-2.24584e-06
-1.82421e-06
-1.4828e-06
-1.20645e-06
-9.82776e-07
-8.01659e-07
-6.54894e-07
-5.35872e-07
-4.39302e-07
-3.60958e-07
-2.97438e-07
-2.4597e-07
-2.04251e-07
-1.70344e-07
-1.42605e-07
-1.19648e-07
-1.00308e-07
-8.36133e-08
-6.87558e-08
-5.50485e-08
-4.18672e-08
-2.84473e-08
-1.56241e-08
9.17893e-05
9.16451e-05
9.12784e-05
9.06897e-05
8.98696e-05
8.87844e-05
8.7387e-05
8.56206e-05
8.34175e-05
8.06969e-05
7.73647e-05
7.33137e-05
6.84245e-05
6.2568e-05
5.56097e-05
4.74161e-05
3.78647e-05
2.68577e-05
1.4338e-05
3.10672e-07
-1.51354e-05
-3.18041e-05
-4.93738e-05
-6.73862e-05
-8.52507e-05
-0.000102268
-0.000117676
-0.000130719
-0.000140733
-0.00014723
-0.00014997
-0.000148996
-0.000144626
-0.000137397
-0.000127987
-0.000117114
-0.000105463
-9.36237e-05
-8.2064e-05
-7.11266e-05
-6.10369e-05
-5.19215e-05
-4.38286e-05
-3.67481e-05
-3.06303e-05
-2.54003e-05
-2.09701e-05
-1.72466e-05
-1.41383e-05
-1.15586e-05
-9.42858e-06
-7.67739e-06
-6.243e-06
-5.07176e-06
-4.11779e-06
-3.3423e-06
-2.71286e-06
-2.20255e-06
-1.78919e-06
-1.45458e-06
-1.18382e-06
-9.64699e-07
-7.87271e-07
-6.43474e-07
-5.26828e-07
-4.32156e-07
-3.55334e-07
-2.93042e-07
-2.42569e-07
-2.01654e-07
-1.68388e-07
-1.41144e-07
-1.18552e-07
-9.94627e-08
-8.29288e-08
-6.8166e-08
-5.45165e-08
-4.13912e-08
-2.80739e-08
-1.54444e-08
9.1911e-05
9.17711e-05
9.14149e-05
9.08429e-05
9.00455e-05
8.89895e-05
8.76286e-05
8.59063e-05
8.37553e-05
8.1095e-05
7.78311e-05
7.38556e-05
6.90471e-05
6.32737e-05
5.6396e-05
4.82742e-05
3.87771e-05
2.77957e-05
1.52606e-05
1.16295e-06
-1.44214e-05
-3.13067e-05
-4.91755e-05
-6.75649e-05
-8.58677e-05
-0.000103354
-0.00011922
-0.00013266
-0.000142961
-0.000149596
-0.000152305
-0.00015114
-0.000146446
-0.000138812
-0.000128965
-0.000117673
-0.000105653
-9.35126e-05
-8.17274e-05
-7.06356e-05
-6.04538e-05
-5.12967e-05
-4.32005e-05
-3.6144e-05
-3.0068e-05
-2.48899e-05
-2.0516e-05
-1.68493e-05
-1.37953e-05
-1.1266e-05
-9.1812e-06
-7.47001e-06
-6.07041e-06
-4.92902e-06
-4.00038e-06
-3.24619e-06
-2.6345e-06
-2.1389e-06
-1.73768e-06
-1.41306e-06
-1.15048e-06
-9.38035e-07
-7.66011e-07
-6.26559e-07
-5.13388e-07
-4.21494e-07
-3.46902e-07
-2.86413e-07
-2.37404e-07
-1.97674e-07
-1.65349e-07
-1.3883e-07
-1.16768e-07
-9.80421e-08
-8.17367e-08
-6.71068e-08
-5.3538e-08
-4.0493e-08
-2.73266e-08
-1.50153e-08
9.20687e-05
9.19341e-05
9.15915e-05
9.10412e-05
9.02733e-05
8.92554e-05
8.79417e-05
8.62768e-05
8.41936e-05
8.1612e-05
7.84373e-05
7.45604e-05
6.98577e-05
6.41935e-05
5.74223e-05
4.93959e-05
3.99718e-05
2.90269e-05
1.64748e-05
2.28849e-06
-1.34737e-05
-3.06402e-05
-4.89e-05
-6.77848e-05
-8.66659e-05
-0.000104774
-0.000121249
-0.000135218
-0.000145902
-0.00015272
-0.000155388
-0.000153965
-0.00014884
-0.000140664
-0.000130238
-0.000118391
-0.000105884
-9.33513e-05
-8.12728e-05
-6.99821e-05
-5.96828e-05
-5.04742e-05
-4.23762e-05
-3.53532e-05
-2.93332e-05
-2.42241e-05
-1.99245e-05
-1.63323e-05
-1.33495e-05
-1.08858e-05
-8.86006e-06
-7.20098e-06
-5.84664e-06
-4.74406e-06
-3.84832e-06
-3.12176e-06
-2.53309e-06
-2.05657e-06
-1.6711e-06
-1.35943e-06
-1.10747e-06
-9.03679e-07
-7.38666e-07
-6.0485e-07
-4.96192e-07
-4.07912e-07
-3.36229e-07
-2.78098e-07
-2.31012e-07
-1.92839e-07
-1.61756e-07
-1.36192e-07
-1.14832e-07
-9.65889e-08
-8.0594e-08
-6.61545e-08
-5.27139e-08
-3.97984e-08
-2.68363e-08
-1.4876e-08
9.22582e-05
9.21301e-05
9.1804e-05
9.12798e-05
9.05476e-05
8.95756e-05
8.83191e-05
8.67235e-05
8.47225e-05
8.22363e-05
7.917e-05
7.54132e-05
7.08399e-05
6.53094e-05
5.86696e-05
5.07619e-05
4.14301e-05
3.05337e-05
1.79658e-05
3.67676e-06
-1.22975e-05
-2.98033e-05
-4.85391e-05
-6.8031e-05
-8.76247e-05
-0.000106503
-0.000123735
-0.000138365
-0.000149527
-0.000156574
-0.000159189
-0.000157442
-0.000151775
-0.000142924
-0.000131778
-0.000119245
-0.000106142
-9.31302e-05
-8.06972e-05
-6.91682e-05
-5.87306e-05
-4.94637e-05
-4.13675e-05
-3.43882e-05
-2.84388e-05
-2.34152e-05
-1.92071e-05
-1.57061e-05
-1.281e-05
-1.04262e-05
-8.47222e-06
-6.87629e-06
-5.57673e-06
-4.52105e-06
-3.66504e-06
-2.97181e-06
-2.41089e-06
-1.95733e-06
-1.5908e-06
-1.29471e-06
-1.05551e-06
-8.62115e-07
-7.05505e-07
-5.78435e-07
-4.75168e-07
-3.912e-07
-3.22985e-07
-2.67666e-07
-2.22868e-07
-1.86547e-07
-1.5693e-07
-1.32488e-07
-1.11941e-07
-9.42475e-08
-7.85975e-08
-6.43634e-08
-5.10596e-08
-3.82899e-08
-2.55806e-08
-1.41201e-08
9.24748e-05
9.23542e-05
9.2047e-05
9.15528e-05
9.08615e-05
8.99424e-05
8.87517e-05
8.72359e-05
8.53297e-05
8.29537e-05
8.00129e-05
7.63955e-05
7.19728e-05
6.65989e-05
6.01137e-05
5.2347e-05
4.31269e-05
3.22927e-05
1.97133e-05
5.31208e-06
-1.09017e-05
-2.87972e-05
-4.8085e-05
-6.82865e-05
-8.8719e-05
-0.000108509
-0.000126642
-0.00014206
-0.000153796
-0.000161118
-0.000163668
-0.000161529
-0.000155212
-0.000145553
-0.000133551
-0.000120209
-0.000106407
-9.2839e-05
-7.99984e-05
-6.81988e-05
-5.76071e-05
-4.82787e-05
-4.01899e-05
-3.32656e-05
-2.74013e-05
-2.24791e-05
-1.83785e-05
-1.49841e-05
-1.2189e-05
-9.89779e-06
-8.02674e-06
-6.50372e-06
-5.2673e-06
-4.26563e-06
-3.4553e-06
-2.80035e-06
-2.27128e-06
-1.84407e-06
-1.49927e-06
-1.22106e-06
-9.96504e-07
-8.15036e-07
-6.68068e-07
-5.48736e-07
-4.51655e-07
-3.72641e-07
-3.08422e-07
-2.56356e-07
-2.14218e-07
-1.80062e-07
-1.52172e-07
-1.29062e-07
-1.09494e-07
-9.24826e-08
-7.72846e-08
-6.33498e-08
-5.02734e-08
-3.77403e-08
-2.53488e-08
-1.43051e-08
9.27132e-05
9.26008e-05
9.23145e-05
9.18534e-05
9.12075e-05
9.03468e-05
8.9229e-05
8.78018e-05
8.6001e-05
8.37477e-05
8.09469e-05
7.74856e-05
7.3232e-05
6.80349e-05
6.17255e-05
5.41208e-05
4.50315e-05
3.42743e-05
2.16906e-05
7.17314e-06
-9.30043e-06
-2.76263e-05
-4.75311e-05
-6.85331e-05
-8.99192e-05
-0.000110752
-0.000129923
-0.000146255
-0.000158655
-0.000166296
-0.000168769
-0.000166172
-0.000159098
-0.000148502
-0.000135516
-0.000121251
-0.000106659
-9.2469e-05
-7.91772e-05
-6.70823e-05
-5.63266e-05
-4.69373e-05
-3.88635e-05
-3.20061e-05
-2.6241e-05
-2.14348e-05
-1.74563e-05
-1.41819e-05
-1.15001e-05
-9.31238e-06
-7.53374e-06
-6.09177e-06
-4.92542e-06
-3.98358e-06
-3.22379e-06
-2.61112e-06
-2.11716e-06
-1.71898e-06
-1.39811e-06
-1.13955e-06
-9.31095e-07
-7.62715e-07
-6.26301e-07
-5.1541e-07
-4.25053e-07
-3.51405e-07
-2.91503e-07
-2.42944e-07
-2.03667e-07
-1.71826e-07
-1.45771e-07
-1.24057e-07
-1.05495e-07
-8.91615e-08
-7.43869e-08
-6.07073e-08
-4.78082e-08
-3.54683e-08
-2.34034e-08
-1.3011e-08
9.29672e-05
9.28637e-05
9.25998e-05
9.21741e-05
9.15768e-05
9.07788e-05
8.97394e-05
8.84076e-05
8.67202e-05
8.45994e-05
8.19502e-05
7.86585e-05
7.45893e-05
6.9586e-05
6.34707e-05
5.60469e-05
4.71066e-05
3.64419e-05
2.38641e-05
9.23144e-06
-7.51396e-06
-2.63e-05
-4.68737e-05
-6.87527e-05
-9.11928e-05
-0.000113188
-0.000133522
-0.000150882
-0.000164035
-0.000172037
-0.00017442
-0.000171302
-0.000163368
-0.000151715
-0.000137627
-0.000122338
-0.00010688
-9.20137e-05
-7.82379e-05
-6.58317e-05
-5.49079e-05
-4.54621e-05
-3.74127e-05
-3.06345e-05
-2.49817e-05
-2.03049e-05
-1.64607e-05
-1.33178e-05
-1.07593e-05
-8.68389e-06
-7.00519e-06
-5.65069e-06
-4.55982e-06
-3.68234e-06
-2.97683e-06
-2.40952e-06
-1.95321e-06
-1.58613e-06
-1.29088e-06
-1.05342e-06
-8.62223e-07
-7.07888e-07
-5.82797e-07
-4.80966e-07
-3.97833e-07
-3.29969e-07
-2.74747e-07
-2.30018e-07
-1.93897e-07
-1.64644e-07
-1.40669e-07
-1.20573e-07
-1.03219e-07
-8.7746e-08
-7.35672e-08
-6.03078e-08
-4.77453e-08
-3.5741e-08
-2.40555e-08
-1.39892e-08
9.32304e-05
9.31361e-05
9.28955e-05
9.25069e-05
9.19603e-05
9.12279e-05
9.02703e-05
8.90383e-05
8.747e-05
8.54885e-05
8.29991e-05
7.98866e-05
7.60133e-05
7.12171e-05
6.53106e-05
5.80837e-05
4.93086e-05
3.87517e-05
2.61921e-05
1.14505e-05
-5.57045e-06
-2.48348e-05
-4.61142e-05
-6.89291e-05
-9.25046e-05
-0.000115762
-0.000137369
-0.000155861
-0.000169847
-0.000178249
-0.00018053
-0.00017683
-0.000167942
-0.000155126
-0.000139833
-0.000123436
-0.000107051
-9.14706e-05
-7.71907e-05
-6.44659e-05
-5.33761e-05
-4.38813e-05
-3.5867e-05
-2.91796e-05
-2.36509e-05
-1.91143e-05
-1.54145e-05
-1.24117e-05
-9.98389e-06
-8.02691e-06
-6.45335e-06
-5.19061e-06
-4.17876e-06
-3.36852e-06
-2.71961e-06
-2.19952e-06
-1.78231e-06
-1.44749e-06
-1.17881e-06
-9.63152e-07
-7.89796e-07
-6.49925e-07
-5.36446e-07
-4.43854e-07
-3.68048e-07
-3.06019e-07
-2.55495e-07
-2.14594e-07
-1.81606e-07
-1.54895e-07
-1.32929e-07
-1.14358e-07
-9.80958e-08
-8.3354e-08
-6.96303e-08
-5.66453e-08
-4.4273e-08
-3.24734e-08
-2.11443e-08
-1.18615e-08
9.34961e-05
9.34112e-05
9.31943e-05
9.28433e-05
9.23483e-05
9.16826e-05
9.08085e-05
8.96784e-05
8.82318e-05
8.63931e-05
8.40679e-05
8.11403e-05
7.74699e-05
7.28893e-05
6.7202e-05
6.0184e-05
5.15877e-05
4.11528e-05
2.86248e-05
1.37849e-05
-3.50703e-06
-2.32551e-05
-4.52602e-05
-6.90492e-05
-9.38187e-05
-0.000118416
-0.000141383
-0.000161094
-0.000175981
-0.000184815
-0.000186984
-0.000182651
-0.000172728
-0.000158658
-0.000142079
-0.000124512
-0.000107159
-9.08434e-05
-7.60519e-05
-6.30107e-05
-5.17624e-05
-4.22289e-05
-3.42607e-05
-2.76747e-05
-2.22795e-05
-1.78915e-05
-1.43428e-05
-1.14857e-05
-9.19309e-06
-7.35816e-06
-5.89255e-06
-4.72382e-06
-3.79278e-06
-3.0512e-06
-2.46e-06
-1.98798e-06
-1.61056e-06
-1.30858e-06
-1.06695e-06
-8.73543e-07
-7.18396e-07
-5.93305e-07
-4.91704e-07
-4.08584e-07
-3.40323e-07
-2.84354e-07
-2.38769e-07
-2.01952e-07
-1.7236e-07
-1.4845e-07
-1.28743e-07
-1.11932e-07
-9.69862e-08
-8.31929e-08
-7.01401e-08
-5.76447e-08
-4.56721e-08
-3.42534e-08
-2.32798e-08
-1.40742e-08
9.37574e-05
9.36818e-05
9.34884e-05
9.31747e-05
9.27308e-05
9.21314e-05
9.13403e-05
9.03116e-05
8.89865e-05
8.72905e-05
8.51299e-05
8.23882e-05
7.89228e-05
7.45612e-05
6.90983e-05
6.22964e-05
5.38884e-05
4.35873e-05
3.11044e-05
1.61801e-05
-1.37043e-06
-2.15949e-05
-4.43272e-05
-6.91052e-05
-9.50998e-05
-0.000121084
-0.000145472
-0.000166465
-0.000182303
-0.000191596
-0.000193645
-0.000188638
-0.000177618
-0.000162228
-0.000144308
-0.000125535
-0.000107197
-9.01427e-05
-7.48456e-05
-6.14987e-05
-5.01043e-05
-4.05441e-05
-3.26325e-05
-2.61564e-05
-2.09012e-05
-1.66662e-05
-1.32719e-05
-1.05624e-05
-8.40595e-06
-6.69346e-06
-5.33578e-06
-4.26077e-06
-3.41011e-06
-2.73666e-06
-2.20259e-06
-1.77803e-06
-1.43981e-06
-1.17011e-06
-9.55025e-07
-7.83408e-07
-6.46032e-07
-5.35287e-07
-4.45131e-07
-3.71063e-07
-3.09955e-07
-2.5969e-07
-2.18728e-07
-1.8571e-07
-1.59244e-07
-1.37864e-07
-1.20133e-07
-1.04784e-07
-9.08498e-08
-7.76985e-08
-6.50185e-08
-5.27297e-08
-4.08961e-08
-2.96467e-08
-1.90338e-08
-1.07804e-08
9.40076e-05
9.39409e-05
9.37702e-05
9.34926e-05
9.30982e-05
9.25628e-05
9.18521e-05
9.09218e-05
8.97147e-05
8.81576e-05
8.61577e-05
8.35982e-05
8.03345e-05
7.61895e-05
7.09501e-05
6.43657e-05
5.61504e-05
4.59912e-05
3.35656e-05
1.85731e-05
7.82948e-07
-1.98979e-05
-4.33399e-05
-6.90958e-05
-9.63152e-05
-0.000123699
-0.000149533
-0.00017184
-0.000188659
-0.000198427
-0.000200351
-0.000194644
-0.000182491
-0.000165746
-0.000146464
-0.000126479
-0.000107164
-8.93875e-05
-7.36043e-05
-5.99705e-05
-4.84461e-05
-3.88717e-05
-3.10255e-05
-2.46648e-05
-1.95523e-05
-1.54711e-05
-1.22302e-05
-9.66651e-06
-7.64395e-06
-6.0513e-06
-4.79897e-06
-3.81526e-06
-3.04277e-06
-2.43548e-06
-1.95682e-06
-1.57825e-06
-1.278e-06
-1.03959e-06
-8.50315e-07
-6.99926e-07
-5.79907e-07
-4.83203e-07
-4.04277e-07
-3.39132e-07
-2.85141e-07
-2.40639e-07
-2.04441e-07
-1.75423e-07
-1.52319e-07
-1.33714e-07
-1.18196e-07
-1.04532e-07
-9.18168e-08
-7.95106e-08
-6.74086e-08
-5.55381e-08
-4.40547e-08
-3.31432e-08
-2.27923e-08
-1.43188e-08
9.424e-05
9.41818e-05
9.40323e-05
9.37886e-05
9.34406e-05
9.29655e-05
9.23305e-05
9.1493e-05
9.03973e-05
8.89718e-05
8.71243e-05
8.47383e-05
8.16673e-05
7.77303e-05
7.27069e-05
6.63349e-05
5.83105e-05
4.82962e-05
3.59373e-05
2.08932e-05
2.88796e-06
-1.82176e-05
-4.23324e-05
-6.90277e-05
-9.74363e-05
-0.000126192
-0.000153456
-0.000177071
-0.000194873
-0.000205119
-0.000206917
-0.000200505
-0.000187215
-0.000169119
-0.000148491
-0.000127323
-0.000107067
-8.86049e-05
-7.23678e-05
-5.84726e-05
-4.68367e-05
-3.72599e-05
-2.94851e-05
-2.32411e-05
-1.82694e-05
-1.43378e-05
-1.12448e-05
-8.82076e-06
-6.92571e-06
-5.44673e-06
-4.29399e-06
-3.39637e-06
-2.69739e-06
-2.15216e-06
-1.72529e-06
-1.38955e-06
-1.12456e-06
-9.15139e-07
-7.49696e-07
-6.18858e-07
-5.14741e-07
-4.30796e-07
-3.61962e-07
-3.04735e-07
-2.56983e-07
-2.17487e-07
-1.85402e-07
-1.59815e-07
-1.39556e-07
-1.23236e-07
-1.0945e-07
-9.69929e-08
-8.5027e-08
-7.31139e-08
-6.11677e-08
-4.93326e-08
-3.78684e-08
-2.70587e-08
-1.70806e-08
-9.78147e-09
9.44487e-05
9.43981e-05
9.42679e-05
9.4055e-05
9.37493e-05
9.3329e-05
9.2763e-05
9.201e-05
9.10162e-05
8.97111e-05
8.80036e-05
8.57771e-05
8.28842e-05
7.91403e-05
7.43187e-05
6.81466e-05
6.03045e-05
5.04321e-05
3.81449e-05
2.30648e-05
4.87277e-06
-1.66155e-05
-4.13475e-05
-6.89155e-05
-9.84406e-05
-0.000128497
-0.000157126
-0.000181999
-0.000200753
-0.000211464
-0.00021314
-0.000206042
-0.000191649
-0.000172252
-0.000150339
-0.000128056
-0.000106922
-8.78302e-05
-7.11828e-05
-5.70574e-05
-4.53296e-05
-3.57602e-05
-2.80591e-05
-2.19286e-05
-1.7091e-05
-1.32999e-05
-1.0345e-05
-8.05039e-06
-6.27305e-06
-4.89867e-06
-3.83737e-06
-3.01868e-06
-2.38704e-06
-1.89858e-06
-1.51904e-06
-1.22243e-06
-9.89654e-07
-8.06783e-07
-6.63264e-07
-5.50495e-07
-4.6114e-07
-3.89088e-07
-3.29703e-07
-2.79941e-07
-2.38146e-07
-2.03525e-07
-1.75542e-07
-1.53465e-07
-1.36185e-07
-1.2231e-07
-1.10421e-07
-9.93351e-08
-8.82779e-08
-7.69184e-08
-6.5296e-08
-5.36754e-08
-4.24112e-08
-3.18318e-08
-2.20072e-08
-1.42707e-08
9.46279e-05
9.45839e-05
9.44707e-05
9.42846e-05
9.40158e-05
9.36435e-05
9.31378e-05
9.2459e-05
9.15545e-05
9.03553e-05
8.87711e-05
8.66857e-05
8.39505e-05
8.03784e-05
7.57374e-05
6.97455e-05
6.20693e-05
5.2329e-05
4.01133e-05
2.50105e-05
6.66203e-06
-1.5158e-05
-4.04344e-05
-6.87811e-05
-9.9312e-05
-0.000130549
-0.000160428
-0.000186462
-0.000206098
-0.000217242
-0.000218805
-0.000211069
-0.000195652
-0.000175053
-0.000151964
-0.000128671
-0.000106753
-8.71046e-05
-7.01004e-05
-5.57795e-05
-4.39786e-05
-3.44233e-05
-2.67933e-05
-2.07678e-05
-1.60516e-05
-1.23869e-05
-9.55492e-06
-7.37511e-06
-5.70161e-06
-4.41916e-06
-3.43799e-06
-2.68827e-06
-2.11533e-06
-1.67618e-06
-1.33757e-06
-1.07462e-06
-8.69434e-07
-7.09225e-07
-5.84364e-07
-4.86915e-07
-4.09995e-07
-3.4785e-07
-2.96208e-07
-2.52447e-07
-2.15351e-07
-1.84517e-07
-1.59696e-07
-1.40304e-07
-1.25267e-07
-1.13171e-07
-1.02569e-07
-9.229e-08
-8.16249e-08
-7.03517e-08
-5.8639e-08
-4.68755e-08
-3.55199e-08
-2.4996e-08
-1.557e-08
-9.14734e-09
9.47728e-05
9.47343e-05
9.4635e-05
9.44712e-05
9.4233e-05
9.39004e-05
9.34448e-05
9.28276e-05
9.19974e-05
9.08864e-05
8.94051e-05
8.74377e-05
8.48349e-05
8.14074e-05
7.6919e-05
7.10802e-05
6.35465e-05
5.39213e-05
4.17709e-05
2.66551e-05
8.18117e-06
-1.39131e-05
-3.96458e-05
-6.86519e-05
-0.000100041
-0.000132294
-0.000163255
-0.000190299
-0.000210708
-0.000222233
-0.000223698
-0.000215401
-0.000199086
-0.000177438
-0.000153331
-0.000129171
-0.000106588
-8.64727e-05
-6.91732e-05
-5.46939e-05
-4.28375e-05
-3.32992e-05
-2.5733e-05
-1.97985e-05
-1.51865e-05
-1.16289e-05
-8.90087e-06
-6.81759e-06
-5.23115e-06
-4.0256e-06
-3.11135e-06
-2.41923e-06
-1.89527e-06
-1.49725e-06
-1.19275e-06
-9.57835e-07
-7.75665e-07
-6.34429e-07
-5.25285e-07
-4.40837e-07
-3.74543e-07
-3.20916e-07
-2.75973e-07
-2.37443e-07
-2.04494e-07
-1.77068e-07
-1.55161e-07
-1.38303e-07
-1.25437e-07
-1.15106e-07
-1.05825e-07
-9.64263e-08
-8.6259e-08
-7.52036e-08
-6.35507e-08
-5.18042e-08
-4.05085e-08
-3.01191e-08
-2.07757e-08
-1.38355e-08
9.48793e-05
9.4845e-05
9.47564e-05
9.46096e-05
9.43948e-05
9.40927e-05
9.36754e-05
9.31054e-05
9.23324e-05
9.12892e-05
8.98872e-05
8.80108e-05
8.55104e-05
8.21952e-05
7.78255e-05
7.21064e-05
6.46846e-05
5.51507e-05
4.30536e-05
2.79304e-05
9.36156e-06
-1.29445e-05
-3.90331e-05
-6.85571e-05
-0.000100625
-0.000133685
-0.00016551
-0.000193366
-0.000214398
-0.000226232
-0.000227618
-0.000218866
-0.000201824
-0.000179332
-0.000154411
-0.000129563
-0.000106457
-8.59779e-05
-6.84503e-05
-5.38504e-05
-4.19537e-05
-3.24308e-05
-2.49159e-05
-1.90533e-05
-1.45226e-05
-1.10484e-05
-8.40071e-06
-6.39181e-06
-4.87219e-06
-3.72545e-06
-2.86226e-06
-2.21395e-06
-1.72713e-06
-1.36015e-06
-1.08122e-06
-8.67186e-07
-7.02033e-07
-5.7475e-07
-4.77118e-07
-4.02144e-07
-3.43527e-07
-2.95953e-07
-2.55651e-07
-2.20626e-07
-1.90361e-07
-1.65083e-07
-1.44988e-07
-1.29697e-07
-1.18151e-07
-1.08849e-07
-1.00263e-07
-9.1219e-08
-8.11158e-08
-6.99223e-08
-5.80369e-08
-4.60662e-08
-3.46381e-08
-2.42821e-08
-1.52978e-08
-9.49581e-09
9.49443e-05
9.49129e-05
9.48314e-05
9.46958e-05
9.44965e-05
9.42147e-05
9.3823e-05
9.32845e-05
9.25496e-05
9.15518e-05
9.0203e-05
8.83877e-05
8.59561e-05
8.27164e-05
7.84267e-05
7.27885e-05
6.54423e-05
5.59702e-05
4.3909e-05
2.87803e-05
1.01459e-05
-1.23064e-05
-3.86409e-05
-6.85238e-05
-0.000101063
-0.000134686
-0.000167116
-0.000195541
-0.000217011
-0.000229062
-0.000230391
-0.000221318
-0.000203763
-0.000180676
-0.000155184
-0.000129857
-0.000106389
-8.56589e-05
-6.79747e-05
-5.32921e-05
-4.13677e-05
-3.18551e-05
-2.4375e-05
-1.85608e-05
-1.40849e-05
-1.06668e-05
-8.0731e-06
-6.11405e-06
-4.63913e-06
-3.5317e-06
-2.70259e-06
-2.08351e-06
-1.62148e-06
-1.2752e-06
-1.01328e-06
-8.13111e-07
-6.59261e-07
-5.41282e-07
-4.51385e-07
-3.82838e-07
-3.29468e-07
-2.86054e-07
-2.48948e-07
-2.16342e-07
-1.87943e-07
-1.64189e-07
-1.4542e-07
-1.31318e-07
-1.20812e-07
-1.1235e-07
-1.04359e-07
-9.56526e-08
-8.56597e-08
-7.44162e-08
-6.24042e-08
-5.03104e-08
-3.88205e-08
-2.84806e-08
-1.94839e-08
-1.32056e-08
9.49659e-05
9.49358e-05
9.48576e-05
9.47272e-05
9.45352e-05
9.42628e-05
9.38831e-05
9.33595e-05
9.26426e-05
9.16663e-05
9.03427e-05
8.85564e-05
8.61575e-05
8.29536e-05
7.87019e-05
7.31018e-05
6.57909e-05
5.63468e-05
4.43002e-05
2.91649e-05
1.04932e-05
-1.20377e-05
-3.85019e-05
-6.85724e-05
-0.000101357
-0.000135272
-0.000168016
-0.000196735
-0.000218433
-0.000230595
-0.000231893
-0.00022265
-0.000204825
-0.000181428
-0.000155638
-0.000130062
-0.000106405
-8.55439e-05
-6.77766e-05
-5.30488e-05
-4.11071e-05
-3.15968e-05
-2.41313e-05
-1.83388e-05
-1.3888e-05
-1.04958e-05
-7.92705e-06
-5.99101e-06
-4.53664e-06
-3.44717e-06
-2.63355e-06
-2.02769e-06
-1.57675e-06
-1.23961e-06
-9.85064e-07
-7.90745e-07
-6.41544e-07
-5.27314e-07
-4.40489e-07
-3.74451e-07
-3.23068e-07
-2.81131e-07
-2.4504e-07
-2.13082e-07
-1.85091e-07
-1.61631e-07
-1.43127e-07
-1.2929e-07
-1.19029e-07
-1.10745e-07
-1.02817e-07
-9.40382e-08
-8.38463e-08
-7.23166e-08
-5.99862e-08
-4.75979e-08
-3.58851e-08
-2.54366e-08
-1.65372e-08
-1.08069e-08
9.4943e-05
9.49126e-05
9.48338e-05
9.47025e-05
9.45093e-05
9.42353e-05
9.38537e-05
9.33277e-05
9.26081e-05
9.16285e-05
9.03013e-05
8.85109e-05
8.61073e-05
8.28982e-05
7.86405e-05
7.30339e-05
6.57157e-05
5.62637e-05
4.42085e-05
2.90641e-05
1.03827e-05
-1.21582e-05
-3.86326e-05
-6.87129e-05
-0.000101507
-0.000135429
-0.000168179
-0.000196902
-0.0002186
-0.00023076
-0.000232052
-0.000222802
-0.000204969
-0.000181563
-0.000155765
-0.000130182
-0.000106516
-8.56474e-05
-6.78721e-05
-5.31363e-05
-4.11868e-05
-3.16691e-05
-2.41966e-05
-1.83976e-05
-1.39408e-05
-1.05431e-05
-7.96933e-06
-6.02872e-06
-4.5702e-06
-3.47698e-06
-2.66003e-06
-2.05123e-06
-1.59771e-06
-1.25825e-06
-1.00161e-06
-8.05401e-07
-6.54516e-07
-5.38827e-07
-4.50767e-07
-3.83691e-07
-3.31411e-07
-2.88669e-07
-2.51828e-07
-2.19174e-07
-1.90564e-07
-1.6659e-07
-1.47695e-07
-1.33584e-07
-1.23135e-07
-1.14704e-07
-1.06626e-07
-9.76584e-08
-8.72271e-08
-7.54143e-08
-6.27785e-08
-5.00907e-08
-3.81086e-08
-2.74313e-08
-1.83065e-08
-1.22257e-08
9.48757e-05
9.48436e-05
9.47603e-05
9.46219e-05
9.44189e-05
9.41323e-05
9.37347e-05
9.31893e-05
9.24462e-05
9.14389e-05
9.00792e-05
8.82516e-05
8.5806e-05
8.25505e-05
7.82432e-05
7.25855e-05
6.52177e-05
5.5722e-05
4.36352e-05
2.84792e-05
9.8159e-06
-1.26662e-05
-3.90308e-05
-6.89429e-05
-0.000101509
-0.000135155
-0.000167603
-0.000196038
-0.00021751
-0.000229554
-0.000230867
-0.000221772
-0.000204192
-0.00018108
-0.000155564
-0.000130214
-0.000106722
-8.5968e-05
-6.82597e-05
-5.35534e-05
-4.16058e-05
-3.20712e-05
-2.45701e-05
-1.87365e-05
-1.42426e-05
-1.08081e-05
-8.19938e-06
-6.2266e-06
-4.73917e-06
-3.62041e-06
-2.78118e-06
-2.15314e-06
-1.68315e-06
-1.32973e-06
-1.06134e-06
-8.55269e-07
-6.96126e-07
-5.73511e-07
-4.79638e-07
-4.07691e-07
-3.51348e-07
-3.05232e-07
-2.65601e-07
-2.3064e-07
-2.00122e-07
-1.74572e-07
-1.54381e-07
-1.39215e-07
-1.27914e-07
-1.18796e-07
-1.10154e-07
-1.00704e-07
-8.98358e-08
-7.76067e-08
-6.45624e-08
-5.14725e-08
-3.91012e-08
-2.80572e-08
-1.86001e-08
-1.22418e-08
9.47653e-05
9.47299e-05
9.46384e-05
9.44869e-05
9.42658e-05
9.39559e-05
9.3529e-05
9.29474e-05
9.21608e-05
9.11019e-05
8.9682e-05
8.77851e-05
8.52615e-05
8.19202e-05
7.75215e-05
7.17702e-05
6.43128e-05
5.47401e-05
4.26009e-05
2.74327e-05
8.81656e-06
-1.35384e-05
-3.96761e-05
-6.92478e-05
-0.00010136
-0.000134457
-0.000166311
-0.000194183
-0.000215218
-0.000227039
-0.0002284
-0.000219613
-0.000202531
-0.000179998
-0.000155037
-0.000130151
-0.000107006
-8.6488e-05
-6.89209e-05
-5.42819e-05
-4.23472e-05
-3.2788e-05
-2.52388e-05
-1.93441e-05
-1.47837e-05
-1.12825e-05
-8.61e-06
-6.57847e-06
-5.03823e-06
-3.87285e-06
-2.99299e-06
-2.32992e-06
-1.83002e-06
-1.45134e-06
-1.16182e-06
-9.38175e-07
-7.64425e-07
-6.29626e-07
-5.25562e-07
-4.45105e-07
-3.81714e-07
-3.2983e-07
-2.85526e-07
-2.4679e-07
-2.13203e-07
-1.85124e-07
-1.62826e-07
-1.45904e-07
-1.33156e-07
-1.22871e-07
-1.13305e-07
-1.0313e-07
-9.16801e-08
-7.89553e-08
-6.54547e-08
-5.19158e-08
-3.9087e-08
-2.75777e-08
-1.76848e-08
-1.11286e-08
9.46142e-05
9.45742e-05
9.44708e-05
9.43005e-05
9.40537e-05
9.37102e-05
9.32411e-05
9.26079e-05
9.1759e-05
9.06261e-05
8.91199e-05
8.71241e-05
8.44892e-05
8.10257e-05
7.64972e-05
7.06139e-05
6.30312e-05
5.33526e-05
4.11445e-05
2.59671e-05
7.4284e-06
-1.47326e-05
-4.05321e-05
-6.96029e-05
-0.000101052
-0.000133355
-0.000164354
-0.00019142
-0.000211833
-0.000223341
-0.000224773
-0.000216428
-0.000200059
-0.000178355
-0.000154194
-0.000129981
-0.000107345
-8.71766e-05
-6.98229e-05
-5.529e-05
-4.33816e-05
-3.37934e-05
-2.618e-05
-2.02014e-05
-1.55485e-05
-1.19536e-05
-9.19125e-06
-7.07667e-06
-5.46168e-06
-4.23027e-06
-3.29286e-06
-2.58017e-06
-2.03795e-06
-1.62359e-06
-1.30428e-06
-1.05595e-06
-8.61749e-07
-7.09948e-07
-5.91706e-07
-4.99455e-07
-4.26346e-07
-3.66569e-07
-3.15932e-07
-2.72136e-07
-2.34465e-07
-2.03027e-07
-1.77915e-07
-1.58622e-07
-1.43905e-07
-1.32032e-07
-1.21238e-07
-1.10148e-07
-9.80231e-08
-8.4783e-08
-7.08474e-08
-5.68905e-08
-4.36174e-08
-3.16036e-08
-2.1071e-08
-1.35146e-08
9.44258e-05
9.43798e-05
9.42613e-05
9.40671e-05
9.37873e-05
9.34011e-05
9.28783e-05
9.21791e-05
9.12508e-05
9.00239e-05
8.8408e-05
8.62866e-05
8.35108e-05
7.98932e-05
7.52015e-05
6.91535e-05
6.14157e-05
5.16083e-05
3.93202e-05
2.41404e-05
5.71113e-06
-1.61918e-05
-4.1551e-05
-6.99776e-05
-0.000100582
-0.000131881
-0.000161806
-0.000187867
-0.000207507
-0.000218631
-0.000220153
-0.00021236
-0.000196876
-0.000176208
-0.000153052
-0.000129692
-0.000107708
-8.79927e-05
-7.09208e-05
-5.65329e-05
-4.46668e-05
-3.50489e-05
-2.73597e-05
-2.12786e-05
-1.65111e-05
-1.27991e-05
-9.92388e-06
-7.70452e-06
-5.99493e-06
-4.67977e-06
-3.66924e-06
-2.89343e-06
-2.29731e-06
-1.83745e-06
-1.48013e-06
-1.20025e-06
-9.79902e-07
-8.06362e-07
-6.69996e-07
-5.62667e-07
-4.77134e-07
-4.0726e-07
-3.48517e-07
-2.98227e-07
-2.55293e-07
-2.19492e-07
-1.90682e-07
-1.6823e-07
-1.50845e-07
-1.36789e-07
-1.24283e-07
-1.11905e-07
-9.88396e-08
-8.49015e-08
-7.04061e-08
-5.59393e-08
-4.21442e-08
-2.95724e-08
-1.85164e-08
-1.08598e-08
9.42043e-05
9.41512e-05
9.40148e-05
9.3792e-05
9.3473e-05
9.3036e-05
9.24494e-05
9.16719e-05
9.06493e-05
8.93109e-05
8.75653e-05
8.52956e-05
8.23539e-05
7.85555e-05
7.36733e-05
6.74342e-05
5.95187e-05
4.95666e-05
3.71936e-05
2.20225e-05
3.73539e-06
-1.78501e-05
-4.26789e-05
-7.03399e-05
-9.99497e-05
-0.000130077
-0.00015876
-0.000183664
-0.000202422
-0.00021311
-0.000214739
-0.000207576
-0.000193106
-0.000173629
-0.000151637
-0.000129275
-0.000108063
-8.88913e-05
-7.21638e-05
-5.79591e-05
-4.61541e-05
-3.65106e-05
-2.87391e-05
-2.25426e-05
-1.76436e-05
-1.37962e-05
-1.07895e-05
-8.44752e-06
-6.62692e-06
-5.21327e-06
-4.11666e-06
-3.26648e-06
-2.60685e-06
-2.09336e-06
-1.69125e-06
-1.37422e-06
-1.12313e-06
-9.24108e-07
-7.66575e-07
-6.41716e-07
-5.41806e-07
-4.6031e-07
-3.9229e-07
-3.3462e-07
-2.85747e-07
-2.45055e-07
-2.1212e-07
-1.86152e-07
-1.65809e-07
-1.49348e-07
-1.3498e-07
-1.21244e-07
-1.07236e-07
-9.26567e-08
-7.76989e-08
-6.28384e-08
-4.86315e-08
-3.55555e-08
-2.37628e-08
-1.47293e-08
9.3955e-05
9.38938e-05
9.3737e-05
9.34818e-05
9.31184e-05
9.26238e-05
9.19649e-05
9.10988e-05
8.99697e-05
8.85056e-05
8.6614e-05
8.41779e-05
8.10505e-05
7.70506e-05
7.19574e-05
6.55084e-05
5.73999e-05
4.72944e-05
3.48376e-05
1.96901e-05
1.57726e-06
-1.9638e-05
-4.38615e-05
-7.06606e-05
-9.91634e-05
-0.000127999
-0.000155321
-0.00017897
-0.000196776
-0.000206997
-0.000208744
-0.000202259
-0.000188885
-0.0001707
-0.000149982
-0.000128725
-0.000108379
-8.98263e-05
-7.3498e-05
-5.95126e-05
-4.77887e-05
-3.81273e-05
-3.02721e-05
-2.39524e-05
-1.89103e-05
-1.49137e-05
-1.17611e-05
-9.28241e-06
-7.3374e-06
-5.81301e-06
-4.61935e-06
-3.68518e-06
-2.95366e-06
-2.37934e-06
-1.92629e-06
-1.56693e-06
-1.28074e-06
-1.05259e-06
-8.70844e-07
-7.25912e-07
-6.09503e-07
-5.14616e-07
-4.3585e-07
-3.69574e-07
-3.13733e-07
-2.67265e-07
-2.29427e-07
-1.9925e-07
-1.75323e-07
-1.55891e-07
-1.39163e-07
-1.23634e-07
-1.08317e-07
-9.27906e-08
-7.7117e-08
-6.16522e-08
-4.68607e-08
-3.31715e-08
-2.08048e-08
-1.16609e-08
9.36835e-05
9.36136e-05
9.34346e-05
9.3144e-05
9.27321e-05
9.21745e-05
9.14368e-05
9.04742e-05
8.92293e-05
8.76287e-05
8.55789e-05
8.2963e-05
7.9636e-05
7.54202e-05
7.01025e-05
6.3432e-05
5.51229e-05
4.48622e-05
3.23283e-05
1.72216e-05
-6.8687e-07
-2.14878e-05
-4.50482e-05
-7.09166e-05
-9.82377e-05
-0.000125707
-0.000151604
-0.000173946
-0.00019077
-0.000200511
-0.00020238
-0.000196596
-0.000184353
-0.000167511
-0.000148131
-0.000128047
-0.000108633
-9.07558e-05
-7.48718e-05
-6.11381e-05
-4.95162e-05
-3.98479e-05
-3.19123e-05
-2.54672e-05
-2.02761e-05
-1.61221e-05
-1.28143e-05
-1.01892e-05
-8.11053e-06
-6.46675e-06
-5.16825e-06
-4.14321e-06
-3.33385e-06
-2.6936e-06
-2.18531e-06
-1.78001e-06
-1.45578e-06
-1.19613e-06
-9.88282e-07
-8.21783e-07
-6.87705e-07
-5.78524e-07
-4.8833e-07
-4.12955e-07
-3.49806e-07
-2.97348e-07
-2.54486e-07
-2.20039e-07
-1.92509e-07
-1.70117e-07
-1.51062e-07
-1.33797e-07
-1.17251e-07
-1.00884e-07
-8.46241e-08
-6.87017e-08
-5.34749e-08
-3.92786e-08
-2.61755e-08
-1.56339e-08
9.33965e-05
9.33172e-05
9.31146e-05
9.27865e-05
9.23232e-05
9.16992e-05
9.08781e-05
8.98136e-05
8.84466e-05
8.67024e-05
8.44866e-05
8.16827e-05
7.81475e-05
7.37081e-05
6.81592e-05
6.12631e-05
5.27526e-05
4.23412e-05
2.97408e-05
1.46932e-05
-2.98455e-06
-2.33375e-05
-4.61959e-05
-7.10931e-05
-9.71949e-05
-0.000123268
-0.000147722
-0.000168751
-0.000184594
-0.00019386
-0.000195852
-0.000190765
-0.000179651
-0.000164158
-0.000146133
-0.000127254
-0.000108807
-9.16443e-05
-7.62379e-05
-6.27827e-05
-5.12826e-05
-4.16202e-05
-3.36112e-05
-2.70431e-05
-2.17019e-05
-1.73871e-05
-1.39193e-05
-1.11422e-05
-8.92395e-06
-7.15506e-06
-5.74637e-06
-4.62559e-06
-3.73403e-06
-3.024e-06
-2.45708e-06
-2.00294e-06
-1.63818e-06
-1.34491e-06
-1.10919e-06
-9.1963e-07
-7.66599e-07