# Force       
# CofR        : (0.000000e+00 0.000000e+00 0.000000e+00)
#
# Time        	total_x total_y total_z	pressure_x pressure_y pressure_z	viscous_x viscous_y viscous_z
1              1.997955e+00 -2.767457e-02 -9.433918e-03 1.909735e+00 -2.767353e-02 -9.418270e-03 8.822022e-02 -1.040595e-06 -1.564805e-05
2              2.480454e+00 -1.890569e-02 -1.220472e-02 2.403646e+00 -1.860064e-02 -1.222558e-02 7.680812e-02 -3.050507e-04 2.086014e-05
3              2.261432e+00 -7.762745e-03 -1.106813e-02 2.193281e+00 -7.291351e-03 -1.112743e-02 6.815112e-02 -4.713938e-04 5.929881e-05
4              1.680956e+00 3.697160e-03 -7.788558e-03 1.619025e+00 4.187182e-03 -7.874444e-03 6.193057e-02 -4.900222e-04 8.588580e-05
5              9.242239e-01 1.553673e-02 -4.093554e-03 8.662810e-01 1.591011e-02 -4.192817e-03 5.794286e-02 -3.733814e-04 9.926294e-05
6              2.591538e-01 2.820552e-02 -9.515729e-04 2.034247e-01 2.841956e-02 -1.056280e-03 5.572916e-02 -2.140365e-04 1.047072e-04
7              -2.037374e-01 3.923156e-02 1.008017e-03 -2.585205e-01 3.930375e-02 8.994315e-04 5.478310e-02 -7.218526e-05 1.085853e-04
8              -4.305280e-01 4.552016e-02 1.538724e-03 -4.850726e-01 4.549435e-02 1.429776e-03 5.454462e-02 2.580817e-05 1.089484e-04
9              -4.449728e-01 4.570633e-02 1.010292e-03 -4.995092e-01 4.563134e-02 9.080955e-04 5.453641e-02 7.499561e-05 1.021967e-04
10             -3.325207e-01 3.827502e-02 -5.349305e-04 -3.869141e-01 3.819056e-02 -6.269247e-04 5.439342e-02 8.445210e-05 9.199418e-05
11             -1.519607e-01 2.494824e-02 -2.165164e-03 -2.058866e-01 2.487515e-02 -2.244573e-03 5.392586e-02 7.308584e-05 7.940922e-05
12             3.629821e-02 9.744425e-03 -3.112959e-03 -1.682046e-02 9.689989e-03 -3.180416e-03 5.311867e-02 5.443676e-05 6.745687e-05
13             1.890252e-01 -3.235046e-03 -3.034567e-03 1.369720e-01 -3.273255e-03 -3.092607e-03 5.205320e-02 3.820922e-05 5.803967e-05
14             2.841124e-01 -1.100028e-02 -2.045843e-03 2.332474e-01 -1.102961e-02 -2.098610e-03 5.086500e-02 2.932878e-05 5.276759e-05
15             3.184345e-01 -1.258633e-02 -6.699394e-04 2.687412e-01 -1.261597e-02 -7.219934e-04 4.969328e-02 2.964122e-05 5.205390e-05
16             3.075042e-01 -9.216615e-03 6.603512e-04 2.588584e-01 -9.253131e-03 6.054223e-04 4.864582e-02 3.651579e-05 5.492893e-05
17             2.680407e-01 -2.044617e-03 1.801693e-03 2.202605e-01 -2.090357e-03 1.742146e-03 4.778012e-02 4.574004e-05 5.954683e-05
18             2.164776e-01 6.609150e-03 2.260116e-03 1.693667e-01 6.557685e-03 2.195875e-03 4.711087e-02 5.146529e-05 6.424142e-05
19             1.672388e-01 1.448502e-02 1.891736e-03 1.206221e-01 1.443544e-02 1.824117e-03 4.661671e-02 4.957330e-05 6.761891e-05
20             1.295627e-01 1.998185e-02 8.513748e-04 8.330835e-02 1.994278e-02 7.820933e-04 4.625433e-02 3.906762e-05 6.928149e-05
21             1.072196e-01 2.238769e-02 -5.036474e-04 6.124799e-02 2.236575e-02 -5.729228e-04 4.597162e-02 2.193181e-05 6.927538e-05
22             9.907336e-02 2.194533e-02 -1.790308e-03 5.335246e-02 2.194332e-02 -1.858344e-03 4.572090e-02 2.015903e-06 6.803653e-05
23             1.007519e-01 1.931429e-02 -2.866753e-03 5.528469e-02 1.933150e-02 -2.933023e-03 4.546718e-02 -1.720957e-05 6.626990e-05
24             1.082424e-01 1.531017e-02 -3.530027e-03 6.305184e-02 1.534293e-02 -3.594514e-03 4.519058e-02 -3.276414e-05 6.448616e-05
25             1.176777e-01 1.100428e-02 -3.641913e-03 7.279143e-02 1.104758e-02 -3.705149e-03 4.488625e-02 -4.329918e-05 6.323603e-05
26             1.260356e-01 7.331394e-03 -3.246736e-03 8.147397e-02 7.380480e-03 -3.309504e-03 4.456165e-02 -4.908648e-05 6.276831e-05
27             1.315779e-01 4.873664e-03 -2.533081e-03 8.734823e-02 4.924953e-03 -2.595951e-03 4.422964e-02 -5.128959e-05 6.287008e-05
28             1.338622e-01 3.757469e-03 -1.750556e-03 8.995807e-02 3.809159e-03 -1.813933e-03 4.390418e-02 -5.168987e-05 6.337661e-05
29             1.335899e-01 3.657236e-03 -1.031960e-03 8.999388e-02 3.709173e-03 -1.095934e-03 4.359605e-02 -5.193779e-05 6.397306e-05
30             1.317176e-01 4.198332e-03 -4.087823e-04 8.840619e-02 4.251411e-03 -4.732811e-04 4.331143e-02 -5.307823e-05 6.449879e-05
31             1.290349e-01 5.052621e-03 2.674514e-05 8.598222e-02 5.108173e-03 -3.788583e-05 4.305265e-02 -5.555163e-05 6.463097e-05
32             1.262210e-01 5.881810e-03 1.996511e-04 8.340352e-02 5.940971e-03 1.353318e-04 4.281748e-02 -5.916144e-05 6.431931e-05
33             1.237551e-01 6.414374e-03 1.034896e-04 8.115375e-02 6.477523e-03 3.988447e-05 4.260134e-02 -6.314845e-05 6.360515e-05
34             1.218734e-01 6.507180e-03 -2.038506e-04 7.947425e-02 6.573850e-03 -2.664376e-04 4.239911e-02 -6.666995e-05 6.258700e-05
35             1.206055e-01 6.158589e-03 -6.230724e-04 7.839962e-02 6.227440e-03 -6.845266e-04 4.220587e-02 -6.885134e-05 6.145414e-05
36             1.198410e-01 5.474892e-03 -1.047211e-03 7.782326e-02 5.543954e-03 -1.107549e-03 4.201778e-02 -6.906173e-05 6.033847e-05
37             1.194017e-01 4.601848e-03 -1.399311e-03 7.756905e-02 4.668876e-03 -1.458659e-03 4.183269e-02 -6.702876e-05 5.934787e-05
38             1.191210e-01 3.686065e-03 -1.632431e-03 7.747118e-02 3.748906e-03 -1.690987e-03 4.164981e-02 -6.284126e-05 5.855593e-05
39             1.188833e-01 2.855800e-03 -1.725875e-03 7.741364e-02 2.912700e-03 -1.783843e-03 4.146968e-02 -5.689992e-05 5.796745e-05
40             1.186282e-01 2.201465e-03 -1.688359e-03 7.733485e-02 2.251213e-03 -1.745918e-03 4.129334e-02 -4.974738e-05 5.755906e-05
41             1.183340e-01 1.760336e-03 -1.559252e-03 7.721217e-02 1.802248e-03 -1.616512e-03 4.112181e-02 -4.191259e-05 5.726035e-05
42             1.179967e-01 1.501234e-03 -1.392320e-03 7.704064e-02 1.535125e-03 -1.449310e-03 4.095605e-02 -3.389112e-05 5.699035e-05
43             1.176267e-01 1.353355e-03 -1.229015e-03 7.683015e-02 1.379372e-03 -1.285696e-03 4.079656e-02 -2.601655e-05 5.668126e-05
44             1.172469e-01 1.239547e-03 -1.089316e-03 7.660344e-02 1.258001e-03 -1.145624e-03 4.064351e-02 -1.845412e-05 5.630870e-05
45             1.168820e-01 1.100447e-03 -9.836538e-04 7.638500e-02 1.111640e-03 -1.039498e-03 4.049697e-02 -1.119362e-05 5.584373e-05
46             1.165509e-01 8.900338e-04 -9.172768e-04 7.619416e-02 8.941781e-04 -9.725549e-04 4.035670e-02 -4.144307e-06 5.527815e-05
47             1.162547e-01 5.989463e-04 -8.996699e-04 7.603226e-02 5.960606e-04 -9.542992e-04 4.022240e-02 2.885656e-06 5.462935e-05
48             1.159745e-01 2.823896e-04 -9.306943e-04 7.588084e-02 2.724324e-04 -9.846082e-04 4.009362e-02 9.957180e-06 5.391387e-05
49             1.157019e-01 -8.061862e-06 -9.865913e-04 7.573203e-02 -2.516346e-05 -1.039748e-03 3.996985e-02 1.710160e-05 5.315693e-05
50             1.154392e-01 -2.575019e-04 -1.043945e-03 7.558835e-02 -2.817911e-04 -1.096325e-03 3.985086e-02 2.428920e-05 5.237998e-05
51             1.151858e-01 -4.846029e-04 -1.093828e-03 7.544932e-02 -5.160189e-04 -1.145427e-03 3.973651e-02 3.141596e-05 5.159916e-05
52             1.149391e-01 -7.018499e-04 -1.132745e-03 7.531229e-02 -7.401942e-04 -1.183573e-03 3.962680e-02 3.834432e-05 5.082751e-05
53             1.146984e-01 -9.130855e-04 -1.158623e-03 7.517669e-02 -9.580164e-04 -1.208696e-03 3.952174e-02 4.493086e-05 5.007326e-05
54             1.144655e-01 -1.126158e-03 -1.171152e-03 7.504422e-02 -1.177207e-03 -1.220492e-03 3.942133e-02 5.104967e-05 4.934030e-05
55             1.142455e-01 -1.348173e-03 -1.170082e-03 7.491993e-02 -1.404779e-03 -1.218712e-03 3.932555e-02 5.660674e-05 4.862968e-05
56             1.140455e-01 -1.554201e-03 -1.156402e-03 7.481116e-02 -1.615754e-03 -1.204344e-03 3.923438e-02 6.155364e-05 4.794219e-05
57             1.138670e-01 -1.718776e-03 -1.136102e-03 7.471928e-02 -1.784649e-03 -1.183382e-03 3.914775e-02 6.587307e-05 4.728077e-05
58             1.137051e-01 -1.841662e-03 -1.116230e-03 7.463965e-02 -1.911226e-03 -1.162880e-03 3.906549e-02 6.956391e-05 4.664993e-05
59             1.135549e-01 -1.939123e-03 -1.100418e-03 7.456745e-02 -2.011764e-03 -1.146470e-03 3.898742e-02 7.264106e-05 4.605247e-05
60             1.134140e-01 -2.029362e-03 -1.089060e-03 7.450064e-02 -2.104497e-03 -1.134548e-03 3.891332e-02 7.513522e-05 4.548783e-05
61             1.132815e-01 -2.122759e-03 -1.081696e-03 7.443847e-02 -2.199848e-03 -1.126648e-03 3.884302e-02 7.708864e-05 4.495236e-05
62             1.131568e-01 -2.222122e-03 -1.077761e-03 7.438045e-02 -2.300665e-03 -1.122203e-03 3.877635e-02 7.854359e-05 4.444125e-05
63             1.130395e-01 -2.326082e-03 -1.076543e-03 7.432637e-02 -2.405620e-03 -1.120495e-03 3.871315e-02 7.953746e-05 4.395117e-05
64             1.129297e-01 -2.431600e-03 -1.077213e-03 7.427648e-02 -2.511701e-03 -1.120694e-03 3.865324e-02 8.010137e-05 4.348103e-05
65             1.128277e-01 -2.534615e-03 -1.078950e-03 7.423123e-02 -2.614876e-03 -1.121981e-03 3.859649e-02 8.026055e-05 4.303117e-05
66             1.127335e-01 -2.629867e-03 -1.081019e-03 7.419071e-02 -2.709903e-03 -1.123623e-03 3.854278e-02 8.003630e-05 4.260368e-05
67             1.126462e-01 -2.712243e-03 -1.082826e-03 7.415421e-02 -2.791693e-03 -1.125027e-03 3.849196e-02 7.944964e-05 4.220105e-05
68             1.125644e-01 -2.779295e-03 -1.083982e-03 7.412053e-02 -2.857816e-03 -1.125808e-03 3.844390e-02 7.852055e-05 4.182683e-05
69             1.124871e-01 -2.832115e-03 -1.084336e-03 7.408866e-02 -2.909386e-03 -1.125820e-03 3.839848e-02 7.727094e-05 4.148387e-05
70             1.124137e-01 -2.874005e-03 -1.083909e-03 7.405812e-02 -2.949731e-03 -1.125082e-03 3.835556e-02 7.572617e-05 4.117379e-05
71             1.123439e-01 -2.908476e-03 -1.082806e-03 7.402890e-02 -2.982391e-03 -1.123702e-03 3.831505e-02 7.391524e-05 4.089676e-05
72             1.122780e-01 -2.938035e-03 -1.081185e-03 7.400116e-02 -3.009905e-03 -1.121837e-03 3.827683e-02 7.186990e-05 4.065234e-05
73             1.122159e-01 -2.963992e-03 -1.079238e-03 7.397505e-02 -3.033616e-03 -1.119677e-03 3.824081e-02 6.962416e-05 4.043929e-05
74             1.121576e-01 -2.986798e-03 -1.077164e-03 7.395066e-02 -3.054009e-03 -1.117420e-03 3.820689e-02 6.721064e-05 4.025596e-05
75             1.121031e-01 -3.006429e-03 -1.075138e-03 7.392816e-02 -3.071089e-03 -1.115238e-03 3.817496e-02 6.465947e-05 4.010031e-05
76             1.120526e-01 -3.022636e-03 -1.073291e-03 7.390770e-02 -3.084633e-03 -1.113262e-03 3.814494e-02 6.199719e-05 3.997126e-05
77             1.120060e-01 -3.035062e-03 -1.071718e-03 7.388929e-02 -3.094309e-03 -1.111585e-03 3.811675e-02 5.924680e-05 3.986699e-05
78             1.119630e-01 -3.043367e-03 -1.070484e-03 7.387270e-02 -3.099796e-03 -1.110270e-03 3.809030e-02 5.642905e-05 3.978572e-05
79             1.119229e-01 -3.047417e-03 -1.069619e-03 7.385740e-02 -3.100980e-03 -1.109345e-03 3.806550e-02 5.356270e-05 3.972578e-05
80             1.118851e-01 -3.047418e-03 -1.069104e-03 7.384286e-02 -3.098083e-03 -1.108790e-03 3.804226e-02 5.066512e-05 3.968581e-05
81             1.118492e-01 -3.043860e-03 -1.068882e-03 7.382872e-02 -3.091612e-03 -1.108546e-03 3.802051e-02 4.775228e-05 3.966404e-05
82             1.118151e-01 -3.037336e-03 -1.068883e-03 7.381490e-02 -3.082176e-03 -1.108542e-03 3.800016e-02 4.483975e-05 3.965864e-05
83             1.117827e-01 -3.028387e-03 -1.069044e-03 7.380152e-02 -3.070328e-03 -1.108712e-03 3.798114e-02 4.194172e-05 3.966778e-05
84             1.117522e-01 -3.017446e-03 -1.069326e-03 7.378881e-02 -3.056523e-03 -1.109020e-03 3.796341e-02 3.907704e-05 3.969363e-05
85             1.117239e-01 -3.004871e-03 -1.069721e-03 7.377704e-02 -3.041134e-03 -1.109459e-03 3.794691e-02 3.626321e-05 3.973766e-05
86             1.116980e-01 -2.990966e-03 -1.070247e-03 7.376645e-02 -3.024476e-03 -1.110042e-03 3.793158e-02 3.350971e-05 3.979523e-05
87             1.116746e-01 -2.976005e-03 -1.070930e-03 7.375731e-02 -3.006825e-03 -1.110793e-03 3.791734e-02 3.082055e-05 3.986237e-05
88             1.116539e-01 -2.960237e-03 -1.071798e-03 7.374978e-02 -2.988443e-03 -1.111735e-03 3.790415e-02 2.820594e-05 3.993761e-05
89             1.116359e-01 -2.943915e-03 -1.072872e-03 7.374397e-02 -2.969575e-03 -1.112889e-03 3.789193e-02 2.565981e-05 4.001736e-05
90             1.116204e-01 -2.927291e-03 -1.074167e-03 7.373981e-02 -2.950474e-03 -1.114268e-03 3.788061e-02 2.318322e-05 4.010177e-05
91             1.116072e-01 -2.910615e-03 -1.075686e-03 7.373703e-02 -2.931393e-03 -1.115876e-03 3.787016e-02 2.077809e-05 4.018960e-05
92             1.115958e-01 -2.894085e-03 -1.077423e-03 7.373528e-02 -2.912533e-03 -1.117705e-03 3.786050e-02 1.844814e-05 4.028157e-05
93             1.115858e-01 -2.877787e-03 -1.079362e-03 7.373415e-02 -2.893989e-03 -1.119742e-03 3.785161e-02 1.620148e-05 4.038003e-05
94             1.115768e-01 -2.861710e-03 -1.081482e-03 7.373336e-02 -2.875740e-03 -1.121967e-03 3.784345e-02 1.402995e-05 4.048461e-05
95             1.115687e-01 -2.845775e-03 -1.083763e-03 7.373274e-02 -2.857714e-03 -1.124353e-03 3.783596e-02 1.193839e-05 4.058993e-05
96             1.115613e-01 -2.829924e-03 -1.086184e-03 7.373226e-02 -2.839845e-03 -1.126877e-03 3.782909e-02 9.921101e-06 4.069326e-05
97             1.115547e-01 -2.814157e-03 -1.088729e-03 7.373194e-02 -2.822125e-03 -1.129523e-03 3.782280e-02 7.967924e-06 4.079323e-05
98             1.115489e-01 -2.798532e-03 -1.091379e-03 7.373186e-02 -2.804620e-03 -1.132275e-03 3.781706e-02 6.088571e-06 4.089604e-05
99             1.115439e-01 -2.783151e-03 -1.094130e-03 7.373207e-02 -2.787442e-03 -1.135126e-03 3.781182e-02 4.290823e-06 4.099572e-05
100            1.115397e-01 -2.768140e-03 -1.096973e-03 7.373265e-02 -2.770713e-03 -1.138067e-03 3.780704e-02 2.573262e-06 4.109321e-05
101            1.115363e-01 -2.753610e-03 -1.099901e-03 7.373365e-02 -2.754548e-03 -1.141089e-03 3.780267e-02 9.381561e-07 4.118860e-05
102            1.115338e-01 -2.739676e-03 -1.102906e-03 7.373507e-02 -2.739063e-03 -1.144185e-03 3.779871e-02 -6.129569e-07 4.127954e-05
103            1.115319e-01 -2.726449e-03 -1.105975e-03 7.373683e-02 -2.724365e-03 -1.147341e-03 3.779510e-02 -2.084040e-06 4.136641e-05
104            1.115306e-01 -2.713997e-03 -1.109089e-03 7.373874e-02 -2.710519e-03 -1.150537e-03 3.779183e-02 -3.478452e-06 4.144766e-05
105            1.115295e-01 -2.702290e-03 -1.112231e-03 7.374060e-02 -2.697491e-03 -1.153756e-03 3.778887e-02 -4.798865e-06 4.152500e-05
106            1.115285e-01 -2.691191e-03 -1.115390e-03 7.374227e-02 -2.685142e-03 -1.156989e-03 3.778618e-02 -6.048562e-06 4.159874e-05
107            1.115274e-01 -2.680513e-03 -1.118565e-03 7.374367e-02 -2.673282e-03 -1.160235e-03 3.778375e-02 -7.230795e-06 4.166929e-05
108            1.115264e-01 -2.670085e-03 -1.121760e-03 7.374481e-02 -2.661737e-03 -1.163497e-03 3.778155e-02 -8.347917e-06 4.173777e-05
109            1.115253e-01 -2.659796e-03 -1.124982e-03 7.374574e-02 -2.650393e-03 -1.166781e-03 3.777955e-02 -9.402966e-06 4.179917e-05
110            1.115197e-01 -2.653524e-03 -1.127057e-03 7.374198e-02 -2.643123e-03 -1.168915e-03 3.777771e-02 -1.040111e-05 4.185768e-05
111            1.115169e-01 -2.641310e-03 -1.130780e-03 7.374094e-02 -2.629944e-03 -1.172686e-03 3.777592e-02 -1.136554e-05 4.190609e-05
112            1.115151e-01 -2.629567e-03 -1.134398e-03 7.374070e-02 -2.617307e-03 -1.176352e-03 3.777438e-02 -1.226000e-05 4.195443e-05
113            1.115145e-01 -2.618700e-03 -1.137863e-03 7.374152e-02 -2.605602e-03 -1.179861e-03 3.777298e-02 -1.309799e-05 4.199851e-05
114            1.115151e-01 -2.608862e-03 -1.141148e-03 7.374340e-02 -2.594983e-03 -1.183185e-03 3.777171e-02 -1.387880e-05 4.203677e-05
115            1.115166e-01 -2.600032e-03 -1.144234e-03 7.374609e-02 -2.585425e-03 -1.186304e-03 3.777055e-02 -1.460738e-05 4.207033e-05
116            1.115187e-01 -2.592064e-03 -1.147103e-03 7.374919e-02 -2.576770e-03 -1.189203e-03 3.776948e-02 -1.529428e-05 4.209985e-05
117            1.115208e-01 -2.584724e-03 -1.149742e-03 7.375227e-02 -2.568779e-03 -1.191866e-03 3.776850e-02 -1.594525e-05 4.212366e-05
118            1.115226e-01 -2.577762e-03 -1.152140e-03 7.375497e-02 -2.561200e-03 -1.194281e-03 3.776758e-02 -1.656256e-05 4.214148e-05
119            1.115238e-01 -2.570962e-03 -1.154297e-03 7.375710e-02 -2.553814e-03 -1.196449e-03 3.776673e-02 -1.714814e-05 4.215273e-05
120            1.115245e-01 -2.564175e-03 -1.156222e-03 7.375860e-02 -2.546472e-03 -1.198382e-03 3.776593e-02 -1.770258e-05 4.216018e-05
121            1.115247e-01 -2.557321e-03 -1.157926e-03 7.375953e-02 -2.539104e-03 -1.200094e-03 3.776520e-02 -1.821657e-05 4.216810e-05
122            1.115245e-01 -2.550395e-03 -1.159422e-03 7.376000e-02 -2.531698e-03 -1.201595e-03 3.776452e-02 -1.869693e-05 4.217363e-05
123            1.115240e-01 -2.543430e-03 -1.160710e-03 7.376013e-02 -2.524289e-03 -1.202888e-03 3.776390e-02 -1.914066e-05 4.217836e-05
124            1.115234e-01 -2.536490e-03 -1.161781e-03 7.376004e-02 -2.516941e-03 -1.203960e-03 3.776333e-02 -1.954918e-05 4.217910e-05
125            1.115227e-01 -2.529653e-03 -1.162615e-03 7.375985e-02 -2.509732e-03 -1.204790e-03 3.776281e-02 -1.992167e-05 4.217529e-05
126            1.115220e-01 -2.522998e-03 -1.163192e-03 7.375965e-02 -2.502734e-03 -1.205359e-03 3.776233e-02 -2.026400e-05 4.216698e-05
127            1.115214e-01 -2.516582e-03 -1.163496e-03 7.375950e-02 -2.496005e-03 -1.205651e-03 3.776190e-02 -2.057760e-05 4.215435e-05
128            1.115209e-01 -2.510451e-03 -1.163521e-03 7.375942e-02 -2.489582e-03 -1.205661e-03 3.776150e-02 -2.086920e-05 4.214033e-05
129            1.115205e-01 -2.504622e-03 -1.163269e-03 7.375940e-02 -2.483480e-03 -1.205396e-03 3.776114e-02 -2.114225e-05 4.212666e-05
130            1.115202e-01 -2.499077e-03 -1.162760e-03 7.375939e-02 -2.477680e-03 -1.204875e-03 3.776080e-02 -2.139709e-05 4.211483e-05
131            1.115198e-01 -2.493769e-03 -1.162020e-03 7.375935e-02 -2.472132e-03 -1.204125e-03 3.776049e-02 -2.163608e-05 4.210501e-05
132            1.115195e-01 -2.488634e-03 -1.161086e-03 7.375925e-02 -2.466775e-03 -1.203182e-03 3.776020e-02 -2.185889e-05 4.209631e-05
133            1.115190e-01 -2.483619e-03 -1.159991e-03 7.375906e-02 -2.461552e-03 -1.202079e-03 3.775994e-02 -2.206750e-05 4.208809e-05
134            1.115185e-01 -2.478688e-03 -1.158764e-03 7.375878e-02 -2.456423e-03 -1.200845e-03 3.775969e-02 -2.226465e-05 4.208064e-05
135            1.115179e-01 -2.473818e-03 -1.157428e-03 7.375842e-02 -2.451366e-03 -1.199503e-03 3.775945e-02 -2.245185e-05 4.207529e-05
136            1.115172e-01 -2.469013e-03 -1.156005e-03 7.375802e-02 -2.446380e-03 -1.198076e-03 3.775922e-02 -2.263324e-05 4.207135e-05
137            1.115166e-01 -2.464283e-03 -1.154518e-03 7.375759e-02 -2.441473e-03 -1.196585e-03 3.775900e-02 -2.280951e-05 4.206702e-05
138            1.115159e-01 -2.459644e-03 -1.152987e-03 7.375717e-02 -2.436664e-03 -1.195051e-03 3.775878e-02 -2.297977e-05 4.206361e-05
139            1.115154e-01 -2.455111e-03 -1.151430e-03 7.375678e-02 -2.431977e-03 -1.193494e-03 3.775858e-02 -2.313349e-05 4.206337e-05
140            1.115148e-01 -2.450695e-03 -1.149865e-03 7.375644e-02 -2.427424e-03 -1.191930e-03 3.775839e-02 -2.327134e-05 4.206591e-05
141            1.115144e-01 -2.446401e-03 -1.148307e-03 7.375615e-02 -2.423001e-03 -1.190377e-03 3.775822e-02 -2.339993e-05 4.207049e-05
142            1.115139e-01 -2.442221e-03 -1.146775e-03 7.375590e-02 -2.418699e-03 -1.188851e-03 3.775805e-02 -2.352229e-05 4.207593e-05
143            1.115136e-01 -2.438140e-03 -1.145290e-03 7.375567e-02 -2.414504e-03 -1.187373e-03 3.775789e-02 -2.363590e-05 4.208269e-05
144            1.115132e-01 -2.434140e-03 -1.143868e-03 7.375543e-02 -2.410399e-03 -1.185959e-03 3.775774e-02 -2.374097e-05 4.209056e-05
145            1.115128e-01 -2.430209e-03 -1.142523e-03 7.375518e-02 -2.406369e-03 -1.184624e-03 3.775759e-02 -2.383995e-05 4.210052e-05
146            1.115124e-01 -2.426329e-03 -1.141262e-03 7.375489e-02 -2.402401e-03 -1.183376e-03 3.775746e-02 -2.392834e-05 4.211353e-05
147            1.115119e-01 -2.422489e-03 -1.140089e-03 7.375458e-02 -2.398480e-03 -1.182217e-03 3.775734e-02 -2.400900e-05 4.212843e-05
148            1.115115e-01 -2.418674e-03 -1.139003e-03 7.375423e-02 -2.394589e-03 -1.181147e-03 3.775723e-02 -2.408446e-05 4.214477e-05
149            1.115110e-01 -2.414870e-03 -1.138002e-03 7.375386e-02 -2.390714e-03 -1.180164e-03 3.775712e-02 -2.415641e-05 4.216222e-05
150            1.115105e-01 -2.411074e-03 -1.137086e-03 7.375347e-02 -2.386853e-03 -1.179266e-03 3.775703e-02 -2.422097e-05 4.218016e-05
151            1.115100e-01 -2.407282e-03 -1.136252e-03 7.375309e-02 -2.383000e-03 -1.178452e-03 3.775694e-02 -2.428128e-05 4.219975e-05
152            1.115096e-01 -2.403494e-03 -1.135502e-03 7.375271e-02 -2.379157e-03 -1.177720e-03 3.775686e-02 -2.433693e-05 4.221854e-05
153            1.115087e-01 -2.400846e-03 -1.135071e-03 7.375190e-02 -2.376450e-03 -1.177307e-03 3.775678e-02 -2.439611e-05 4.223642e-05
154            1.115080e-01 -2.396576e-03 -1.134405e-03 7.375129e-02 -2.372119e-03 -1.176655e-03 3.775669e-02 -2.445651e-05 4.225022e-05
155            1.115074e-01 -2.392433e-03 -1.133828e-03 7.375080e-02 -2.367931e-03 -1.176095e-03 3.775662e-02 -2.450161e-05 4.226761e-05
156            1.115070e-01 -2.388460e-03 -1.133353e-03 7.375048e-02 -2.363917e-03 -1.175637e-03 3.775655e-02 -2.454339e-05 4.228439e-05
157            1.115068e-01 -2.384640e-03 -1.132982e-03 7.375032e-02 -2.360057e-03 -1.175282e-03 3.775649e-02 -2.458298e-05 4.229978e-05
158            1.115067e-01 -2.380933e-03 -1.132713e-03 7.375029e-02 -2.356311e-03 -1.175026e-03 3.775642e-02 -2.462109e-05 4.231327e-05
159            1.115067e-01 -2.377294e-03 -1.132536e-03 7.375033e-02 -2.352635e-03 -1.174862e-03 3.775636e-02 -2.465917e-05 4.232544e-05
160            1.115067e-01 -2.373686e-03 -1.132443e-03 7.375037e-02 -2.348990e-03 -1.174780e-03 3.775631e-02 -2.469663e-05 4.233716e-05
161            1.115066e-01 -2.370078e-03 -1.132424e-03 7.375038e-02 -2.345346e-03 -1.174773e-03 3.775625e-02 -2.473197e-05 4.234871e-05
162            1.115065e-01 -2.366445e-03 -1.132472e-03 7.375032e-02 -2.341677e-03 -1.174832e-03 3.775620e-02 -2.476739e-05 4.235948e-05
163            1.115063e-01 -2.362773e-03 -1.132580e-03 7.375018e-02 -2.337968e-03 -1.174949e-03 3.775615e-02 -2.480485e-05 4.236894e-05
164            1.115061e-01 -2.359056e-03 -1.132741e-03 7.374996e-02 -2.334211e-03 -1.175118e-03 3.775609e-02 -2.484505e-05 4.237701e-05
165            1.115057e-01 -2.355305e-03 -1.132949e-03 7.374970e-02 -2.330417e-03 -1.175333e-03 3.775603e-02 -2.488738e-05 4.238392e-05
166            1.115054e-01 -2.351543e-03 -1.133200e-03 7.374943e-02 -2.326613e-03 -1.175590e-03 3.775598e-02 -2.493053e-05 4.239018e-05
167            1.115051e-01 -2.347803e-03 -1.133484e-03 7.374919e-02 -2.322830e-03 -1.175880e-03 3.775592e-02 -2.497316e-05 4.239638e-05
168            1.115049e-01 -2.344102e-03 -1.133792e-03 7.374899e-02 -2.319089e-03 -1.176195e-03 3.775587e-02 -2.501291e-05 4.240295e-05
169            1.115047e-01 -2.340445e-03 -1.134119e-03 7.374883e-02 -2.315395e-03 -1.176529e-03 3.775583e-02 -2.504978e-05 4.241026e-05
170            1.115045e-01 -2.336825e-03 -1.134460e-03 7.374871e-02 -2.311741e-03 -1.176878e-03 3.775580e-02 -2.508442e-05 4.241795e-05
171            1.115044e-01 -2.333229e-03 -1.134812e-03 7.374860e-02 -2.308112e-03 -1.177237e-03 3.775577e-02 -2.511730e-05 4.242574e-05
172            1.115042e-01 -2.329640e-03 -1.135172e-03 7.374849e-02 -2.304491e-03 -1.177605e-03 3.775574e-02 -2.514882e-05 4.243347e-05
173            1.115041e-01 -2.326047e-03 -1.135538e-03 7.374836e-02 -2.300867e-03 -1.177979e-03 3.775572e-02 -2.517963e-05 4.244048e-05
174            1.115039e-01 -2.322449e-03 -1.135909e-03 7.374823e-02 -2.297240e-03 -1.178356e-03 3.775571e-02 -2.520990e-05 4.244680e-05
175            1.115038e-01 -2.318860e-03 -1.136283e-03 7.374809e-02 -2.293621e-03 -1.178736e-03 3.775569e-02 -2.523954e-05 4.245277e-05
176            1.115037e-01 -2.315295e-03 -1.136657e-03 7.374798e-02 -2.290026e-03 -1.179115e-03 3.775568e-02 -2.526892e-05 4.245864e-05
177            1.115035e-01 -2.311763e-03 -1.137029e-03 7.374787e-02 -2.286465e-03 -1.179493e-03 3.775568e-02 -2.529855e-05 4.246438e-05
178            1.115034e-01 -2.308267e-03 -1.137398e-03 7.374778e-02 -2.282939e-03 -1.179868e-03 3.775567e-02 -2.532824e-05 4.246999e-05
179            1.115034e-01 -2.304807e-03 -1.137762e-03 7.374769e-02 -2.279449e-03 -1.180237e-03 3.775567e-02 -2.535737e-05 4.247532e-05
180            1.115033e-01 -2.301376e-03 -1.138120e-03 7.374761e-02 -2.275989e-03 -1.180600e-03 3.775568e-02 -2.538618e-05 4.248020e-05
181            1.115032e-01 -2.297967e-03 -1.138472e-03 7.374753e-02 -2.272553e-03 -1.180957e-03 3.775568e-02 -2.541390e-05 4.248438e-05
182            1.115031e-01 -2.294575e-03 -1.138818e-03 7.374744e-02 -2.269134e-03 -1.181306e-03 3.775569e-02 -2.544039e-05 4.248815e-05
183            1.115030e-01 -2.291194e-03 -1.139157e-03 7.374734e-02 -2.265728e-03 -1.181648e-03 3.775570e-02 -2.546613e-05 4.249152e-05
184            1.115029e-01 -2.287822e-03 -1.139490e-03 7.374721e-02 -2.262331e-03 -1.181985e-03 3.775571e-02 -2.549142e-05 4.249457e-05
185            1.115028e-01 -2.284461e-03 -1.139818e-03 7.374707e-02 -2.258945e-03 -1.182315e-03 3.775572e-02 -2.551654e-05 4.249728e-05
186            1.115027e-01 -2.281114e-03 -1.140141e-03 7.374692e-02 -2.255572e-03 -1.182640e-03 3.775573e-02 -2.554184e-05 4.249959e-05
187            1.115025e-01 -2.277792e-03 -1.140458e-03 7.374678e-02 -2.252225e-03 -1.182960e-03 3.775574e-02 -2.556726e-05 4.250149e-05
188            1.115024e-01 -2.274499e-03 -1.140771e-03 7.374663e-02 -2.248906e-03 -1.183274e-03 3.775575e-02 -2.559263e-05 4.250297e-05
189            1.115022e-01 -2.271234e-03 -1.141079e-03 7.374648e-02 -2.245616e-03 -1.183583e-03 3.775576e-02 -2.561794e-05 4.250400e-05
190            1.115021e-01 -2.267996e-03 -1.141383e-03 7.374632e-02 -2.242353e-03 -1.183888e-03 3.775577e-02 -2.564337e-05 4.250493e-05
191            1.115019e-01 -2.264781e-03 -1.141682e-03 7.374616e-02 -2.239112e-03 -1.184187e-03 3.775578e-02 -2.566905e-05 4.250559e-05
192            1.115018e-01 -2.261586e-03 -1.141978e-03 7.374599e-02 -2.235891e-03 -1.184483e-03 3.775579e-02 -2.569510e-05 4.250591e-05
193            1.115016e-01 -2.258406e-03 -1.142271e-03 7.374581e-02 -2.232685e-03 -1.184777e-03 3.775580e-02 -2.572159e-05 4.250587e-05
194            1.115014e-01 -2.255240e-03 -1.142562e-03 7.374561e-02 -2.229492e-03 -1.185067e-03 3.775581e-02 -2.574827e-05 4.250550e-05
195            1.115012e-01 -2.252086e-03 -1.142852e-03 7.374540e-02 -2.226311e-03 -1.185356e-03 3.775582e-02 -2.577513e-05 4.250473e-05
196            1.115010e-01 -2.248942e-03 -1.143141e-03 7.374519e-02 -2.223140e-03 -1.185645e-03 3.775583e-02 -2.580220e-05 4.250359e-05
197            1.115008e-01 -2.245808e-03 -1.143431e-03 7.374498e-02 -2.219979e-03 -1.185933e-03 3.775583e-02 -2.582943e-05 4.250220e-05
198            1.115006e-01 -2.242692e-03 -1.143722e-03 7.374479e-02 -2.216835e-03 -1.186223e-03 3.775584e-02 -2.585700e-05 4.250059e-05
199            1.115005e-01 -2.239610e-03 -1.144015e-03 7.374465e-02 -2.213725e-03 -1.186514e-03 3.775584e-02 -2.588479e-05 4.249884e-05
200            1.115004e-01 -2.236570e-03 -1.144309e-03 7.374455e-02 -2.210658e-03 -1.186806e-03 3.775585e-02 -2.591242e-05 4.249703e-05
201            1.115003e-01 -2.233576e-03 -1.144603e-03 7.374449e-02 -2.207636e-03 -1.187098e-03 3.775586e-02 -2.593980e-05 4.249531e-05
202            1.115003e-01 -2.230621e-03 -1.144898e-03 7.374446e-02 -2.204654e-03 -1.187391e-03 3.775586e-02 -2.596700e-05 4.249377e-05
203            1.115003e-01 -2.227697e-03 -1.145192e-03 7.374445e-02 -2.201703e-03 -1.187685e-03 3.775587e-02 -2.599402e-05 4.249240e-05
204            1.115003e-01 -2.224795e-03 -1.145488e-03 7.374443e-02 -2.198774e-03 -1.187979e-03 3.775588e-02 -2.602100e-05 4.249118e-05
205            1.115003e-01 -2.221905e-03 -1.145785e-03 7.374441e-02 -2.195857e-03 -1.188275e-03 3.775589e-02 -2.604777e-05 4.249007e-05
206            1.115003e-01 -2.219022e-03 -1.146086e-03 7.374436e-02 -2.192947e-03 -1.188575e-03 3.775590e-02 -2.607450e-05 4.248905e-05
207            1.115002e-01 -2.216143e-03 -1.146390e-03 7.374429e-02 -2.190042e-03 -1.188878e-03 3.775591e-02 -2.610086e-05 4.248846e-05
208            1.115001e-01 -2.213269e-03 -1.146699e-03 7.374420e-02 -2.187142e-03 -1.189187e-03 3.775592e-02 -2.612748e-05 4.248821e-05
209            1.115000e-01 -2.210403e-03 -1.147013e-03 7.374409e-02 -2.184249e-03 -1.189501e-03 3.775592e-02 -2.615432e-05 4.248800e-05
210            1.114999e-01 -2.207547e-03 -1.147334e-03 7.374396e-02 -2.181366e-03 -1.189822e-03 3.775593e-02 -2.618119e-05 4.248783e-05
211            1.114998e-01 -2.204704e-03 -1.147662e-03 7.374382e-02 -2.178496e-03 -1.190149e-03 3.775594e-02 -2.620800e-05 4.248772e-05
212            1.114996e-01 -2.201877e-03 -1.147994e-03 7.374367e-02 -2.175643e-03 -1.190482e-03 3.775595e-02 -2.623466e-05 4.248776e-05
213            1.114995e-01 -2.199067e-03 -1.148333e-03 7.374352e-02 -2.172806e-03 -1.190821e-03 3.775596e-02 -2.626102e-05 4.248788e-05
214            1.114993e-01 -2.196272e-03 -1.148678e-03 7.374336e-02 -2.169985e-03 -1.191166e-03 3.775597e-02 -2.628727e-05 4.248799e-05
215            1.114992e-01 -2.193494e-03 -1.149029e-03 7.374321e-02 -2.167180e-03 -1.191517e-03 3.775598e-02 -2.631344e-05 4.248818e-05
216            1.114990e-01 -2.190731e-03 -1.149384e-03 7.374306e-02 -2.164392e-03 -1.191873e-03 3.775599e-02 -2.633950e-05 4.248833e-05
217            1.114989e-01 -2.187984e-03 -1.149745e-03 7.374291e-02 -2.161619e-03 -1.192233e-03 3.775599e-02 -2.636549e-05 4.248833e-05
218            1.114988e-01 -2.185250e-03 -1.150111e-03 7.374277e-02 -2.158858e-03 -1.192599e-03 3.775600e-02 -2.639165e-05 4.248815e-05