# Moment      
# CofR        : (0.000000e+00 0.000000e+00 0.000000e+00)
#
# Time        	total_x total_y total_z	pressure_x pressure_y pressure_z	viscous_x viscous_y viscous_z
1              2.740277e-04 2.427394e-03 2.671932e-02 2.735431e-04 2.432654e-03 2.622644e-02 4.846535e-07 -5.259896e-06 4.928766e-04
2              3.907981e-04 3.001221e-03 3.552209e-02 3.906124e-04 3.022202e-03 3.520689e-02 1.856931e-07 -2.098100e-05 3.151981e-04
3              3.660731e-04 2.845558e-03 3.392410e-02 3.662600e-04 2.881291e-03 3.375038e-02 -1.869074e-07 -3.573287e-05 1.737234e-04
4              2.718759e-04 2.276304e-03 2.658359e-02 2.724735e-04 2.320877e-03 2.649615e-02 -5.976711e-07 -4.457268e-05 8.743616e-05
5              1.716987e-04 1.339022e-03 1.583660e-02 1.726234e-04 1.386838e-03 1.577800e-02 -9.247167e-07 -4.781579e-05 5.860268e-05
6              8.389411e-05 4.662157e-04 6.371681e-03 8.499335e-05 5.138513e-04 6.302000e-03 -1.099247e-06 -4.763554e-05 6.968042e-05
7              2.436453e-05 -1.721671e-04 -1.774440e-04 2.558678e-05 -1.257104e-04 -2.799290e-04 -1.222251e-06 -4.645663e-05 1.024850e-04
8              -3.227174e-06 -4.898966e-04 -3.510830e-03 -1.939834e-06 -4.456075e-04 -3.652212e-03 -1.287340e-06 -4.428915e-05 1.413820e-04
9              -7.703838e-06 -5.205598e-04 -3.877538e-03 -6.443817e-06 -4.798356e-04 -4.052320e-03 -1.260021e-06 -4.072421e-05 1.747815e-04
10             8.670809e-06 -3.576681e-04 -2.963871e-03 9.887128e-06 -3.205082e-04 -3.159191e-03 -1.216319e-06 -3.715988e-05 1.953205e-04
11             3.356841e-05 -1.243234e-04 -1.529495e-03 3.474973e-05 -9.075275e-05 -1.733033e-03 -1.181317e-06 -3.357067e-05 2.035387e-04
12             5.599213e-05 6.346731e-05 -8.657020e-05 5.715850e-05 9.392393e-05 -2.886550e-04 -1.166375e-06 -3.045662e-05 2.020848e-04
13             6.898349e-05 1.447348e-04 1.118596e-03 7.014619e-05 1.726706e-04 9.247734e-04 -1.162691e-06 -2.793580e-05 1.938223e-04
14             7.050394e-05 1.170491e-04 2.041243e-03 7.167751e-05 1.434357e-04 1.859100e-03 -1.173572e-06 -2.638654e-05 1.821432e-04
15             6.352368e-05 2.971367e-05 2.691470e-03 6.472207e-05 5.563911e-05 2.520716e-03 -1.198391e-06 -2.592543e-05 1.707540e-04
16             5.208019e-05 -6.531429e-05 3.132470e-03 5.331647e-05 -3.898458e-05 2.970465e-03 -1.236285e-06 -2.632971e-05 1.620044e-04
17             3.767253e-05 -1.442037e-04 3.524361e-03 3.895072e-05 -1.169768e-04 3.367672e-03 -1.278183e-06 -2.722690e-05 1.566890e-04
18             2.605568e-05 -1.500851e-04 3.851025e-03 2.737433e-05 -1.217964e-04 3.696548e-03 -1.318649e-06 -2.828867e-05 1.544764e-04
19             2.048480e-05 -6.545586e-05 4.089361e-03 2.183979e-05 -3.621965e-05 3.934913e-03 -1.354988e-06 -2.923621e-05 1.544486e-04
20             2.146214e-05 9.064348e-05 4.213759e-03 2.286023e-05 1.205518e-04 4.058031e-03 -1.398085e-06 -2.990835e-05 1.557278e-04
21             2.723053e-05 2.729934e-04 4.208018e-03 2.868396e-05 3.032824e-04 4.050355e-03 -1.453434e-06 -3.028902e-05 1.576638e-04
22             3.494903e-05 4.333769e-04 4.084765e-03 3.647099e-05 4.638257e-04 3.924914e-03 -1.521956e-06 -3.044880e-05 1.598509e-04
23             4.317593e-05 5.539013e-04 3.854587e-03 4.477736e-05 5.843519e-04 3.692735e-03 -1.601423e-06 -3.045067e-05 1.618517e-04
24             4.991469e-05 6.083769e-04 3.538241e-03 5.159390e-05 6.387854e-04 3.374577e-03 -1.679208e-06 -3.040854e-05 1.636643e-04
25             5.327138e-05 5.822658e-04 3.195951e-03 5.501858e-05 6.127060e-04 3.030763e-03 -1.747203e-06 -3.044021e-05 1.651878e-04
26             5.269813e-05 4.874013e-04 2.895670e-03 5.449496e-05 5.179744e-04 2.729338e-03 -1.796825e-06 -3.057309e-05 1.663314e-04
27             4.896105e-05 3.559544e-04 2.690482e-03 5.078750e-05 3.867095e-04 2.523309e-03 -1.826443e-06 -3.075519e-05 1.671729e-04
28             4.369805e-05 2.270156e-04 2.599553e-03 4.553779e-05 2.579570e-04 2.431795e-03 -1.839744e-06 -3.094137e-05 1.677580e-04
29             3.797460e-05 1.185504e-04 2.593962e-03 3.981445e-05 1.496640e-04 2.425796e-03 -1.839848e-06 -3.111362e-05 1.681661e-04
30             3.201396e-05 3.417271e-05 2.639870e-03 3.384765e-05 6.539919e-05 2.471376e-03 -1.833689e-06 -3.122648e-05 1.684938e-04
31             2.668961e-05 -1.288203e-05 2.712043e-03 2.851481e-05 1.836619e-05 2.543219e-03 -1.825198e-06 -3.124822e-05 1.688234e-04
32             2.297679e-05 -1.374262e-05 2.780897e-03 2.479555e-05 1.742202e-05 2.611678e-03 -1.818763e-06 -3.116464e-05 1.692188e-04
33             2.138308e-05 2.864836e-05 2.818643e-03 2.320089e-05 5.964753e-05 2.648883e-03 -1.817809e-06 -3.099917e-05 1.697597e-04
34             2.183587e-05 1.011077e-04 2.807690e-03 2.365972e-05 1.318775e-04 2.637173e-03 -1.823847e-06 -3.076984e-05 1.705169e-04
35             2.378049e-05 1.846269e-04 2.744814e-03 2.561656e-05 2.151478e-04 2.573257e-03 -1.836073e-06 -3.052089e-05 1.715578e-04
36             2.643612e-05 2.606673e-04 2.639437e-03 2.828952e-05 2.909480e-04 2.466533e-03 -1.853396e-06 -3.028068e-05 1.729039e-04
37             2.914080e-05 3.170910e-04 2.506589e-03 3.101416e-05 3.471586e-04 2.332044e-03 -1.873362e-06 -3.006755e-05 1.745459e-04
38             3.138072e-05 3.474691e-04 2.363076e-03 3.327394e-05 3.773569e-04 2.186632e-03 -1.893215e-06 -2.988783e-05 1.764438e-04
39             3.278368e-05 3.504900e-04 2.225537e-03 3.469456e-05 3.802257e-04 2.047001e-03 -1.910882e-06 -2.973573e-05 1.785363e-04
40             3.319506e-05 3.304149e-04 2.107682e-03 3.511981e-05 3.600190e-04 1.926932e-03 -1.924751e-06 -2.960404e-05 1.807492e-04
41             3.274756e-05 2.967433e-04 2.017455e-03 3.468185e-05 3.262224e-04 1.834438e-03 -1.934282e-06 -2.947908e-05 1.830167e-04
42             3.177055e-05 2.602597e-04 1.952621e-03 3.370997e-05 2.896069e-04 1.767344e-03 -1.939420e-06 -2.934724e-05 1.852777e-04
43             3.056756e-05 2.283007e-04 1.903671e-03 3.250820e-05 2.575035e-04 1.716188e-03 -1.940637e-06 -2.920275e-05 1.874829e-04
44             2.931246e-05 2.038572e-04 1.858519e-03 3.125130e-05 2.328919e-04 1.668914e-03 -1.938835e-06 -2.903473e-05 1.896047e-04
45             2.812855e-05 1.882237e-04 1.807533e-03 3.006350e-05 2.170618e-04 1.615892e-03 -1.934953e-06 -2.883814e-05 1.916407e-04
46             2.711521e-05 1.817950e-04 1.742571e-03 2.904491e-05 2.104074e-04 1.548964e-03 -1.929703e-06 -2.861240e-05 1.936074e-04
47             2.642938e-05 1.853071e-04 1.663555e-03 2.835288e-05 2.136712e-04 1.468003e-03 -1.923508e-06 -2.836408e-05 1.955521e-04
48             2.616914e-05 1.969875e-04 1.584741e-03 2.808586e-05 2.250854e-04 1.387270e-03 -1.916714e-06 -2.809788e-05 1.974711e-04
49             2.621231e-05 2.114631e-04 1.516772e-03 2.812226e-05 2.392816e-04 1.317414e-03 -1.909953e-06 -2.781843e-05 1.993586e-04
50             2.639590e-05 2.244443e-04 1.460346e-03 2.829919e-05 2.519769e-04 1.259142e-03 -1.903299e-06 -2.753258e-05 2.012043e-04
51             2.663245e-05 2.346679e-04 1.408777e-03 2.852902e-05 2.619111e-04 1.205788e-03 -1.896574e-06 -2.724324e-05 2.029892e-04
52             2.686845e-05 2.417350e-04 1.357767e-03 2.875805e-05 2.686912e-04 1.153077e-03 -1.889594e-06 -2.695621e-05 2.046898e-04
53             2.705808e-05 2.454887e-04 1.305801e-03 2.894034e-05 2.721626e-04 1.099521e-03 -1.882263e-06 -2.667384e-05 2.062803e-04
54             2.716511e-05 2.460666e-04 1.251015e-03 2.903963e-05 2.724649e-04 1.043279e-03 -1.874518e-06 -2.639831e-05 2.077362e-04
55             2.715435e-05 2.436307e-04 1.192105e-03 2.902070e-05 2.697606e-04 9.830647e-04 -1.866355e-06 -2.612994e-05 2.090404e-04
56             2.701748e-05 2.389673e-04 1.135949e-03 2.887533e-05 2.648367e-04 9.257648e-04 -1.857849e-06 -2.586939e-05 2.101841e-04
57             2.680087e-05 2.337725e-04 1.089786e-03 2.865004e-05 2.593916e-04 8.786244e-04 -1.849165e-06 -2.561910e-05 2.111619e-04
58             2.656311e-05 2.294945e-04 1.054379e-03 2.840363e-05 2.548759e-04 8.424092e-04 -1.840522e-06 -2.538146e-05 2.119693e-04
59             2.633474e-05 2.266178e-04 1.025884e-03 2.816685e-05 2.517729e-04 8.132795e-04 -1.832119e-06 -2.515513e-05 2.126048e-04
60             2.612061e-05 2.249535e-04 9.995926e-04 2.794463e-05 2.498934e-04 7.865195e-04 -1.824021e-06 -2.493993e-05 2.130731e-04
61             2.592315e-05 2.242159e-04 9.726244e-04 2.773942e-05 2.489507e-04 7.592404e-04 -1.816271e-06 -2.473478e-05 2.133840e-04
62             2.574751e-05 2.241573e-04 9.440183e-04 2.755637e-05 2.486951e-04 7.304697e-04 -1.808869e-06 -2.453780e-05 2.135486e-04
63             2.559762e-05 2.245413e-04 9.139376e-04 2.739941e-05 2.488890e-04 7.003598e-04 -1.801788e-06 -2.434770e-05 2.135778e-04
64             2.547406e-05 2.251428e-04 8.830614e-04 2.726906e-05 2.493071e-04 6.695800e-04 -1.795008e-06 -2.416434e-05 2.134814e-04
65             2.537413e-05 2.257679e-04 8.524268e-04 2.716265e-05 2.497560e-04 6.391584e-04 -1.788525e-06 -2.398808e-05 2.132684e-04
66             2.529268e-05 2.262699e-04 8.234798e-04 2.707503e-05 2.500900e-04 6.105332e-04 -1.782351e-06 -2.382010e-05 2.129466e-04
67             2.522283e-05 2.265594e-04 7.976912e-04 2.699933e-05 2.502206e-04 5.851679e-04 -1.776497e-06 -2.366124e-05 2.125234e-04
68             2.515750e-05 2.266064e-04 7.758278e-04 2.692848e-05 2.501192e-04 5.638229e-04 -1.770982e-06 -2.351287e-05 2.120049e-04
69             2.509108e-05 2.264254e-04 7.576584e-04 2.685690e-05 2.498015e-04 5.462611e-04 -1.765816e-06 -2.337614e-05 2.113973e-04
70             2.502012e-05 2.260483e-04 7.422935e-04 2.678112e-05 2.493001e-04 5.315865e-04 -1.761005e-06 -2.325184e-05 2.107070e-04
71             2.494327e-05 2.255104e-04 7.287454e-04 2.669981e-05 2.486503e-04 5.188041e-04 -1.756544e-06 -2.313991e-05 2.099413e-04
72             2.486123e-05 2.248521e-04 7.162878e-04 2.661366e-05 2.478922e-04 5.071796e-04 -1.752435e-06 -2.304009e-05 2.091082e-04
73             2.477642e-05 2.241212e-04 7.045335e-04 2.652509e-05 2.470732e-04 4.963171e-04 -1.748674e-06 -2.295195e-05 2.082165e-04
74             2.469227e-05 2.233683e-04 6.933505e-04 2.643751e-05 2.462431e-04 4.860759e-04 -1.745244e-06 -2.287482e-05 2.072746e-04
75             2.461235e-05 2.226377e-04 6.827558e-04 2.635451e-05 2.454457e-04 4.764650e-04 -1.742159e-06 -2.280802e-05 2.062908e-04
76             2.453982e-05 2.219626e-04 6.728441e-04 2.627924e-05 2.447139e-04 4.675715e-04 -1.739426e-06 -2.275133e-05 2.052726e-04
77             2.447712e-05 2.213684e-04 6.637611e-04 2.621417e-05 2.440725e-04 4.595346e-04 -1.737049e-06 -2.270406e-05 2.042264e-04
78             2.442584e-05 2.208738e-04 6.556740e-04 2.616088e-05 2.435393e-04 4.525155e-04 -1.735036e-06 -2.266557e-05 2.031585e-04
79             2.438640e-05 2.204860e-04 6.487017e-04 2.611979e-05 2.431214e-04 4.466275e-04 -1.733390e-06 -2.263530e-05 2.020742e-04
80             2.435804e-05 2.201984e-04 6.428464e-04 2.609014e-05 2.428112e-04 4.418675e-04 -1.732103e-06 -2.261275e-05 2.009789e-04
81             2.433914e-05 2.199914e-04 6.379885e-04 2.607031e-05 2.425887e-04 4.381114e-04 -1.731166e-06 -2.259730e-05 1.998771e-04
82             2.432781e-05 2.198412e-04 6.339433e-04 2.605837e-05 2.424296e-04 4.351699e-04 -1.730560e-06 -2.258833e-05 1.987733e-04
83             2.432237e-05 2.197277e-04 6.305279e-04 2.605262e-05 2.423130e-04 4.328561e-04 -1.730252e-06 -2.258526e-05 1.976718e-04
84             2.432150e-05 2.196389e-04 6.276015e-04 2.605180e-05 2.422277e-04 4.310228e-04 -1.730294e-06 -2.258885e-05 1.965786e-04
85             2.432434e-05 2.195733e-04 6.250666e-04 2.605507e-05 2.421730e-04 4.295670e-04 -1.730725e-06 -2.259964e-05 1.954996e-04
86             2.433061e-05 2.195394e-04 6.228572e-04 2.606207e-05 2.421554e-04 4.284198e-04 -1.731454e-06 -2.261598e-05 1.944374e-04
87             2.434036e-05 2.195485e-04 6.209273e-04 2.607278e-05 2.421850e-04 4.275341e-04 -1.732424e-06 -2.263645e-05 1.933932e-04
88             2.435374e-05 2.196111e-04 6.192429e-04 2.608735e-05 2.422717e-04 4.268722e-04 -1.733615e-06 -2.266051e-05 1.923707e-04
89             2.437100e-05 2.197374e-04 6.177719e-04 2.610596e-05 2.424244e-04 4.264046e-04 -1.734955e-06 -2.268692e-05 1.913674e-04
90             2.439227e-05 2.199341e-04 6.164877e-04 2.612868e-05 2.426499e-04 4.261039e-04 -1.736412e-06 -2.271581e-05 1.903838e-04
91             2.441751e-05 2.202055e-04 6.153675e-04 2.615545e-05 2.429523e-04 4.259465e-04 -1.737941e-06 -2.274676e-05 1.894210e-04
92             2.444648e-05 2.205513e-04 6.143932e-04 2.618599e-05 2.433313e-04 4.259124e-04 -1.739512e-06 -2.278002e-05 1.884808e-04
93             2.447872e-05 2.209673e-04 6.135575e-04 2.621988e-05 2.437837e-04 4.259912e-04 -1.741160e-06 -2.281635e-05 1.875663e-04
94             2.451373e-05 2.214466e-04 6.128546e-04 2.625664e-05 2.443021e-04 4.261800e-04 -1.742907e-06 -2.285555e-05 1.866747e-04
95             2.455113e-05 2.219814e-04 6.122838e-04 2.629581e-05 2.448770e-04 4.264754e-04 -1.744679e-06 -2.289566e-05 1.858084e-04
96             2.459058e-05 2.225640e-04 6.118359e-04 2.633700e-05 2.454997e-04 4.268704e-04 -1.746418e-06 -2.293565e-05 1.849655e-04
97             2.463173e-05 2.231889e-04 6.114950e-04 2.637990e-05 2.461638e-04 4.273526e-04 -1.748170e-06 -2.297487e-05 1.841424e-04
98             2.467438e-05 2.238486e-04 6.112439e-04 2.642424e-05 2.468644e-04 4.279009e-04 -1.749857e-06 -2.301579e-05 1.833431e-04
99             2.471837e-05 2.245427e-04 6.110602e-04 2.646984e-05 2.475987e-04 4.284891e-04 -1.751474e-06 -2.305604e-05 1.825712e-04
100            2.476353e-05 2.252685e-04 6.109207e-04 2.651655e-05 2.483645e-04 4.290941e-04 -1.753013e-06 -2.309596e-05 1.818267e-04
101            2.480973e-05 2.260241e-04 6.108088e-04 2.656418e-05 2.491597e-04 4.296978e-04 -1.754445e-06 -2.313558e-05 1.811110e-04
102            2.485678e-05 2.268084e-04 6.107127e-04 2.661251e-05 2.499824e-04 4.302874e-04 -1.755737e-06 -2.317401e-05 1.804253e-04
103            2.490434e-05 2.276196e-04 6.106266e-04 2.666124e-05 2.508309e-04 4.308582e-04 -1.756898e-06 -2.321135e-05 1.797685e-04
104            2.495207e-05 2.284543e-04 6.105556e-04 2.670997e-05 2.517012e-04 4.314157e-04 -1.757904e-06 -2.324684e-05 1.791398e-04
105            2.499961e-05 2.293085e-04 6.105192e-04 2.675837e-05 2.525896e-04 4.319805e-04 -1.758766e-06 -2.328108e-05 1.785387e-04
106            2.504670e-05 2.301788e-04 6.105464e-04 2.680619e-05 2.534929e-04 4.325820e-04 -1.759492e-06 -2.331411e-05 1.779644e-04
107            2.509324e-05 2.310631e-04 6.106634e-04 2.685333e-05 2.544091e-04 4.332474e-04 -1.760097e-06 -2.334604e-05 1.774160e-04
108            2.513922e-05 2.319602e-04 6.108875e-04 2.689986e-05 2.553375e-04 4.339945e-04 -1.760637e-06 -2.337730e-05 1.768930e-04
109            2.518482e-05 2.328713e-04 6.112258e-04 2.694586e-05 2.562774e-04 4.348313e-04 -1.761042e-06 -2.340605e-05 1.763945e-04
110            2.521685e-05 2.334952e-04 6.116403e-04 2.697820e-05 2.569288e-04 4.357196e-04 -1.761349e-06 -2.343359e-05 1.759207e-04
111            2.526662e-05 2.345456e-04 6.123423e-04 2.702811e-05 2.580032e-04 4.368829e-04 -1.761492e-06 -2.345766e-05 1.754594e-04
112            2.531488e-05 2.355635e-04 6.130749e-04 2.707642e-05 2.590454e-04 4.380488e-04 -1.761542e-06 -2.348188e-05 1.750260e-04
113            2.536130e-05 2.365384e-04 6.137996e-04 2.712282e-05 2.600430e-04 4.391838e-04 -1.761514e-06 -2.350467e-05 1.746158e-04
114            2.540571e-05 2.374639e-04 6.145014e-04 2.716710e-05 2.609892e-04 4.402720e-04 -1.761390e-06 -2.352537e-05 1.742295e-04
115            2.544785e-05 2.383345e-04 6.151812e-04 2.720910e-05 2.618787e-04 4.413157e-04 -1.761254e-06 -2.354422e-05 1.738654e-04
116            2.548762e-05 2.391448e-04 6.158552e-04 2.724871e-05 2.627062e-04 4.423353e-04 -1.761094e-06 -2.356144e-05 1.735199e-04
117            2.552494e-05 2.398894e-04 6.165544e-04 2.728583e-05 2.634658e-04 4.433636e-04 -1.760895e-06 -2.357633e-05 1.731908e-04
118            2.555978e-05 2.405625e-04 6.173108e-04 2.732044e-05 2.641513e-04 4.444332e-04 -1.760657e-06 -2.358880e-05 1.728775e-04
119            2.559225e-05 2.411615e-04 6.181464e-04 2.735265e-05 2.647601e-04 4.455671e-04 -1.760396e-06 -2.359860e-05 1.725793e-04
120            2.562256e-05 2.416867e-04 6.190687e-04 2.738268e-05 2.652935e-04 4.467730e-04 -1.760126e-06 -2.360679e-05 1.722958e-04
121            2.565086e-05 2.421389e-04 6.200747e-04 2.741079e-05 2.657538e-04 4.480444e-04 -1.759923e-06 -2.361487e-05 1.720303e-04
122            2.567746e-05 2.425210e-04 6.211490e-04 2.743720e-05 2.661428e-04 4.493686e-04 -1.759731e-06 -2.362176e-05 1.717804e-04
123            2.570241e-05 2.428324e-04 6.222774e-04 2.746200e-05 2.664605e-04 4.507303e-04 -1.759591e-06 -2.362801e-05 1.715471e-04
124            2.572573e-05 2.430706e-04 6.234417e-04 2.748522e-05 2.667030e-04 4.521120e-04 -1.759495e-06 -2.363239e-05 1.713297e-04
125            2.574741e-05 2.432291e-04 6.246232e-04 2.750687e-05 2.668638e-04 4.534946e-04 -1.759451e-06 -2.363467e-05 1.711286e-04
126            2.576746e-05 2.433023e-04 6.258036e-04 2.752691e-05 2.669372e-04 4.548622e-04 -1.759447e-06 -2.363492e-05 1.709414e-04
127            2.578590e-05 2.432864e-04 6.269703e-04 2.754536e-05 2.669196e-04 4.562024e-04 -1.759458e-06 -2.363323e-05 1.707679e-04
128            2.580260e-05 2.431808e-04 6.281145e-04 2.756212e-05 2.668115e-04 4.575094e-04 -1.759523e-06 -2.363069e-05 1.706051e-04
129            2.581752e-05 2.429891e-04 6.292353e-04 2.757714e-05 2.666171e-04 4.587834e-04 -1.759628e-06 -2.362803e-05 1.704519e-04
130            2.583073e-05 2.427187e-04 6.303383e-04 2.759048e-05 2.663446e-04 4.600303e-04 -1.759752e-06 -2.362587e-05 1.703080e-04
131            2.584237e-05 2.423794e-04 6.314325e-04 2.760227e-05 2.660037e-04 4.612599e-04 -1.759906e-06 -2.362428e-05 1.701726e-04
132            2.585263e-05 2.419826e-04 6.325259e-04 2.761273e-05 2.656054e-04 4.624804e-04 -1.760099e-06 -2.362288e-05 1.700456e-04
133            2.586175e-05 2.415386e-04 6.336226e-04 2.762208e-05 2.651601e-04 4.636964e-04 -1.760323e-06 -2.362144e-05 1.699262e-04
134            2.586995e-05 2.410560e-04 6.347223e-04 2.763053e-05 2.646760e-04 4.649089e-04 -1.760573e-06 -2.362007e-05 1.698134e-04
135            2.587740e-05 2.405417e-04 6.358234e-04 2.763825e-05 2.641610e-04 4.661170e-04 -1.760848e-06 -2.361932e-05 1.697064e-04
136            2.588425e-05 2.400033e-04 6.369216e-04 2.764537e-05 2.636223e-04 4.673181e-04 -1.761116e-06 -2.361896e-05 1.696035e-04
137            2.589067e-05 2.394485e-04 6.380125e-04 2.765199e-05 2.630669e-04 4.685081e-04 -1.761313e-06 -2.361839e-05 1.695044e-04
138            2.589664e-05 2.388844e-04 6.390920e-04 2.765815e-05 2.625024e-04 4.696827e-04 -1.761509e-06 -2.361803e-05 1.694093e-04
139            2.590211e-05 2.383174e-04 6.401580e-04 2.766386e-05 2.619361e-04 4.708359e-04 -1.761752e-06 -2.361869e-05 1.693222e-04
140            2.590710e-05 2.377532e-04 6.412075e-04 2.766913e-05 2.613735e-04 4.719651e-04 -1.762032e-06 -2.362022e-05 1.692425e-04
141            2.591163e-05 2.371975e-04 6.422392e-04 2.767396e-05 2.608199e-04 4.730714e-04 -1.762335e-06 -2.362240e-05 1.691678e-04
142            2.591576e-05 2.366563e-04 6.432555e-04 2.767841e-05 2.602811e-04 4.741586e-04 -1.762655e-06 -2.362479e-05 1.690969e-04
143            2.591955e-05 2.361354e-04 6.442612e-04 2.768255e-05 2.597630e-04 4.752307e-04 -1.762994e-06 -2.362759e-05 1.690306e-04
144            2.592313e-05 2.356401e-04 6.452613e-04 2.768647e-05 2.592708e-04 4.762926e-04 -1.763340e-06 -2.363074e-05 1.689687e-04
145            2.592655e-05 2.351739e-04 6.462583e-04 2.769025e-05 2.588085e-04 4.773479e-04 -1.763700e-06 -2.363461e-05 1.689104e-04
146            2.592981e-05 2.347385e-04 6.472546e-04 2.769390e-05 2.583780e-04 4.783973e-04 -1.764092e-06 -2.363956e-05 1.688574e-04
147            2.593295e-05 2.343344e-04 6.482502e-04 2.769746e-05 2.579795e-04 4.794419e-04 -1.764509e-06 -2.364514e-05 1.688083e-04
148            2.593600e-05 2.339615e-04 6.492457e-04 2.770095e-05 2.576127e-04 4.804834e-04 -1.764948e-06 -2.365117e-05 1.687623e-04
149            2.593900e-05 2.336190e-04 6.502419e-04 2.770440e-05 2.572766e-04 4.815233e-04 -1.765397e-06 -2.365758e-05 1.687186e-04
150            2.594198e-05 2.333061e-04 6.512399e-04 2.770783e-05 2.569702e-04 4.825612e-04 -1.765847e-06 -2.366412e-05 1.686787e-04
151            2.594492e-05 2.330219e-04 6.522389e-04 2.771124e-05 2.566931e-04 4.835976e-04 -1.766323e-06 -2.367124e-05 1.686413e-04
152            2.594791e-05 2.327670e-04 6.532390e-04 2.771465e-05 2.564451e-04 4.846326e-04 -1.766749e-06 -2.367812e-05 1.686065e-04
153            2.595098e-05 2.326153e-04 6.539715e-04 2.771814e-05 2.563000e-04 4.854001e-04 -1.767168e-06 -2.368468e-05 1.685714e-04
154            2.595452e-05 2.323901e-04 6.550820e-04 2.772201e-05 2.560799e-04 4.865459e-04 -1.767497e-06 -2.368979e-05 1.685361e-04
155            2.595802e-05 2.321957e-04 6.561614e-04 2.772585e-05 2.558920e-04 4.876542e-04 -1.767830e-06 -2.369628e-05 1.685072e-04
156            2.596150e-05 2.320367e-04 6.572030e-04 2.772963e-05 2.557393e-04 4.887229e-04 -1.768121e-06 -2.370261e-05 1.684801e-04
157            2.596500e-05 2.319136e-04 6.582168e-04 2.773337e-05 2.556221e-04 4.897624e-04 -1.768369e-06 -2.370848e-05 1.684544e-04
158            2.596854e-05 2.318251e-04 6.592160e-04 2.773710e-05 2.555388e-04 4.907864e-04 -1.768563e-06 -2.371372e-05 1.684297e-04
159            2.597214e-05 2.317684e-04 6.602115e-04 2.774086e-05 2.554869e-04 4.918060e-04 -1.768722e-06 -2.371852e-05 1.684055e-04
160            2.597580e-05 2.317400e-04 6.612107e-04 2.774466e-05 2.554632e-04 4.928286e-04 -1.768858e-06 -2.372317e-05 1.683821e-04
161            2.597956e-05 2.317368e-04 6.622183e-04 2.774853e-05 2.554646e-04 4.938584e-04 -1.768972e-06 -2.372780e-05 1.683599e-04
162            2.598344e-05 2.317562e-04 6.632363e-04 2.775249e-05 2.554884e-04 4.948981e-04 -1.769057e-06 -2.373219e-05 1.683381e-04
163            2.598747e-05 2.317958e-04 6.642649e-04 2.775658e-05 2.555319e-04 4.959490e-04 -1.769106e-06 -2.373613e-05 1.683159e-04
164            2.599166e-05 2.318531e-04 6.653036e-04 2.776078e-05 2.555927e-04 4.970106e-04 -1.769121e-06 -2.373960e-05 1.682930e-04
165            2.599596e-05 2.319264e-04 6.663487e-04 2.776507e-05 2.556690e-04 4.980791e-04 -1.769114e-06 -2.374267e-05 1.682696e-04
166            2.600028e-05 2.320134e-04 6.673937e-04 2.776938e-05 2.557589e-04 4.991475e-04 -1.769099e-06 -2.374552e-05 1.682463e-04
167            2.600462e-05 2.321113e-04 6.684302e-04 2.777372e-05 2.558596e-04 5.002068e-04 -1.769095e-06 -2.374834e-05 1.682234e-04
168            2.600893e-05 2.322173e-04 6.694537e-04 2.777805e-05 2.559686e-04 5.012517e-04 -1.769118e-06 -2.375127e-05 1.682020e-04
169            2.601313e-05 2.323295e-04 6.704631e-04 2.778231e-05 2.560839e-04 5.022811e-04 -1.769181e-06 -2.375441e-05 1.681820e-04
170            2.601716e-05 2.324462e-04 6.714612e-04 2.778644e-05 2.562039e-04 5.032982e-04 -1.769276e-06 -2.375767e-05 1.681630e-04
171            2.602100e-05 2.325665e-04 6.724529e-04 2.779039e-05 2.563275e-04 5.043080e-04 -1.769392e-06 -2.376093e-05 1.681449e-04
172            2.602463e-05 2.326895e-04 6.734436e-04 2.779415e-05 2.564537e-04 5.053160e-04 -1.769527e-06 -2.376414e-05 1.681275e-04
173            2.602804e-05 2.328147e-04 6.744373e-04 2.779772e-05 2.565818e-04 5.063267e-04 -1.769678e-06 -2.376706e-05 1.681106e-04
174            2.603126e-05 2.329413e-04 6.754348e-04 2.780109e-05 2.567110e-04 5.073408e-04 -1.769827e-06 -2.376973e-05 1.680941e-04
175            2.603429e-05 2.330686e-04 6.764329e-04 2.780427e-05 2.568409e-04 5.083549e-04 -1.769979e-06 -2.377227e-05 1.680780e-04
176            2.603716e-05 2.331959e-04 6.774263e-04 2.780730e-05 2.569707e-04 5.093642e-04 -1.770140e-06 -2.377476e-05 1.680622e-04
177            2.603989e-05 2.333226e-04 6.784122e-04 2.781020e-05 2.570998e-04 5.103658e-04 -1.770306e-06 -2.377720e-05 1.680464e-04
178            2.604254e-05 2.334481e-04 6.793898e-04 2.781301e-05 2.572277e-04 5.113589e-04 -1.770477e-06 -2.377959e-05 1.680308e-04
179            2.604512e-05 2.335719e-04 6.803593e-04 2.781576e-05 2.573537e-04 5.123437e-04 -1.770647e-06 -2.378188e-05 1.680156e-04
180            2.604764e-05 2.336938e-04 6.813222e-04 2.781845e-05 2.574778e-04 5.133215e-04 -1.770808e-06 -2.378401e-05 1.680007e-04
181            2.605012e-05 2.338137e-04 6.822810e-04 2.782107e-05 2.575996e-04 5.142947e-04 -1.770953e-06 -2.378590e-05 1.679863e-04
182            2.605257e-05 2.339313e-04 6.832374e-04 2.782366e-05 2.577190e-04 5.152650e-04 -1.771092e-06 -2.378764e-05 1.679724e-04
183            2.605500e-05 2.340469e-04 6.841927e-04 2.782622e-05 2.578361e-04 5.162338e-04 -1.771224e-06 -2.378925e-05 1.679589e-04
184            2.605742e-05 2.341604e-04 6.851475e-04 2.782877e-05 2.579512e-04 5.172020e-04 -1.771346e-06 -2.379076e-05 1.679456e-04
185            2.605984e-05 2.342722e-04 6.861011e-04 2.783130e-05 2.580643e-04 5.181688e-04 -1.771458e-06 -2.379216e-05 1.679324e-04
186            2.606227e-05 2.343823e-04 6.870523e-04 2.783383e-05 2.581758e-04 5.191331e-04 -1.771558e-06 -2.379342e-05 1.679192e-04
187            2.606473e-05 2.344908e-04 6.879980e-04 2.783637e-05 2.582854e-04 5.200920e-04 -1.771644e-06 -2.379456e-05 1.679060e-04
188            2.606720e-05 2.345977e-04 6.889367e-04 2.783892e-05 2.583933e-04 5.210438e-04 -1.771717e-06 -2.379555e-05 1.678929e-04
189            2.606967e-05 2.347032e-04 6.898681e-04 2.784145e-05 2.584996e-04 5.219882e-04 -1.771777e-06 -2.379640e-05 1.678799e-04
190            2.607213e-05 2.348072e-04 6.907929e-04 2.784395e-05 2.586044e-04 5.229261e-04 -1.771823e-06 -2.379723e-05 1.678669e-04
191            2.607456e-05 2.349100e-04 6.917121e-04 2.784642e-05 2.587079e-04 5.238583e-04 -1.771856e-06 -2.379798e-05 1.678538e-04
192            2.607698e-05 2.350117e-04 6.926266e-04 2.784886e-05 2.588103e-04 5.247861e-04 -1.771876e-06 -2.379861e-05 1.678406e-04
193            2.607938e-05 2.351128e-04 6.935379e-04 2.785127e-05 2.589119e-04 5.257106e-04 -1.771884e-06 -2.379912e-05 1.678272e-04
194            2.608178e-05 2.352133e-04 6.944461e-04 2.785366e-05 2.590129e-04 5.266323e-04 -1.771879e-06 -2.379952e-05 1.678138e-04
195            2.608418e-05 2.353137e-04 6.953519e-04 2.785604e-05 2.591134e-04 5.275515e-04 -1.771860e-06 -2.379979e-05 1.678004e-04
196            2.608658e-05 2.354140e-04 6.962557e-04 2.785841e-05 2.592139e-04 5.284687e-04 -1.771831e-06 -2.379993e-05 1.677869e-04
197            2.608899e-05 2.355145e-04 6.971571e-04 2.786078e-05 2.593145e-04 5.293837e-04 -1.771795e-06 -2.379997e-05 1.677734e-04
198            2.609136e-05 2.356156e-04 6.980548e-04 2.786311e-05 2.594156e-04 5.302950e-04 -1.771750e-06 -2.379994e-05 1.677597e-04
199            2.609367e-05 2.357173e-04 6.989447e-04 2.786537e-05 2.595171e-04 5.311987e-04 -1.771699e-06 -2.379987e-05 1.677461e-04
200            2.609590e-05 2.358192e-04 6.998242e-04 2.786754e-05 2.596190e-04 5.320916e-04 -1.771645e-06 -2.379977e-05 1.677325e-04
201            2.609804e-05 2.359214e-04 7.006926e-04 2.786964e-05 2.597211e-04 5.329734e-04 -1.771593e-06 -2.379972e-05 1.677191e-04
202            2.610009e-05 2.360237e-04 7.015517e-04 2.787163e-05 2.598234e-04 5.338459e-04 -1.771547e-06 -2.379971e-05 1.677058e-04
203            2.610204e-05 2.361261e-04 7.024042e-04 2.787354e-05 2.599259e-04 5.347116e-04 -1.771508e-06 -2.379975e-05 1.676926e-04
204            2.610391e-05 2.362290e-04 7.032529e-04 2.787539e-05 2.600288e-04 5.355735e-04 -1.771473e-06 -2.379985e-05 1.676794e-04
205            2.610573e-05 2.363325e-04 7.041004e-04 2.787717e-05 2.601324e-04 5.364340e-04 -1.771441e-06 -2.379998e-05 1.676663e-04
206            2.610749e-05 2.364370e-04 7.049477e-04 2.787890e-05 2.602371e-04 5.372944e-04 -1.771410e-06 -2.380013e-05 1.676533e-04
207            2.610923e-05 2.365429e-04 7.057952e-04 2.788062e-05 2.603433e-04 5.381548e-04 -1.771391e-06 -2.380042e-05 1.676404e-04
208            2.611095e-05 2.366504e-04 7.066427e-04 2.788233e-05 2.604512e-04 5.390152e-04 -1.771379e-06 -2.380084e-05 1.676275e-04
209            2.611268e-05 2.367599e-04 7.074888e-04 2.788404e-05 2.605612e-04 5.398744e-04 -1.771363e-06 -2.380127e-05 1.676144e-04
210            2.611442e-05 2.368716e-04 7.083324e-04 2.788576e-05 2.606733e-04 5.407310e-04 -1.771346e-06 -2.380172e-05 1.676015e-04
211            2.611616e-05 2.369853e-04 7.091726e-04 2.788749e-05 2.607874e-04 5.415841e-04 -1.771330e-06 -2.380218e-05 1.675885e-04
212            2.611789e-05 2.371009e-04 7.100084e-04 2.788921e-05 2.609035e-04 5.424328e-04 -1.771318e-06 -2.380269e-05 1.675756e-04
213            2.611963e-05 2.372184e-04 7.108395e-04 2.789094e-05 2.610216e-04 5.432766e-04 -1.771307e-06 -2.380323e-05 1.675629e-04
214            2.612137e-05 2.373379e-04 7.116659e-04 2.789266e-05 2.611417e-04 5.441157e-04 -1.771296e-06 -2.380377e-05 1.675502e-04
215            2.612311e-05 2.374591e-04 7.124882e-04 2.789439e-05 2.612635e-04 5.449506e-04 -1.771285e-06 -2.380433e-05 1.675376e-04
216            2.612485e-05 2.375820e-04 7.133064e-04 2.789612e-05 2.613869e-04 5.457813e-04 -1.771273e-06 -2.380487e-05 1.675251e-04
217            2.612659e-05 2.377065e-04 7.141208e-04 2.789785e-05 2.615118e-04 5.466082e-04 -1.771261e-06 -2.380536e-05 1.675125e-04
218            2.612834e-05 2.378324e-04 7.149320e-04 2.789959e-05 2.616382e-04 5.474321e-04 -1.771248e-06 -2.380577e-05 1.674999e-04
219            2.613010e-05 2.379598e-04 7.157408e-04 2.790133e-05 2.617660e-04 5.482535e-04 -1.771233e-06 -2.380614e-05 1.674872e-04
220            2.613186e-05 2.380886e-04 7.165473e-04 2.790308e-05 2.618951e-04 5.490728e-04 -1.771218e-06 -2.380651e-05 1.674744e-04
221            2.613364e-05 2.382185e-04 7.173515e-04 2.790484e-05 2.620254e-04 5.498900e-04 -1.771203e-06 -2.380689e-05 1.674615e-04
222            2.613544e-05 2.383496e-04 7.181533e-04 2.790663e-05 2.621569e-04 5.507050e-04 -1.771187e-06 -2.380731e-05 1.674483e-04
