# Moment      
# CofR        : (0.000000e+00 0.000000e+00 0.000000e+00)
#
# Time        	total_x total_y total_z	pressure_x pressure_y pressure_z	viscous_x viscous_y viscous_z
1              5.331778e-08 1.175741e-04 4.442004e-05 5.371443e-08 1.171353e-04 4.483175e-05 -3.966464e-10 4.388353e-07 -4.117118e-07
2              5.065198e-08 1.823667e-04 -3.567199e-07 5.511921e-08 1.813731e-04 -6.419239e-08 -4.467237e-09 9.936701e-07 -2.925275e-07
3              4.810062e-08 1.028936e-04 2.811447e-05 5.220640e-08 1.017842e-04 2.859994e-05 -4.105772e-09 1.109377e-06 -4.854718e-07
4              3.417124e-08 -1.592815e-05 9.400791e-05 3.271628e-08 -1.683407e-05 9.480719e-05 1.454963e-09 9.059140e-07 -7.992812e-07
5              1.190618e-08 -1.313377e-04 1.279814e-04 5.003232e-09 -1.316168e-04 1.289236e-04 6.902950e-09 2.790740e-07 -9.422417e-07
6              -1.239330e-08 -2.015029e-04 1.204776e-04 -2.286515e-08 -2.012501e-04 1.213390e-04 1.047184e-08 -2.527244e-07 -8.613599e-07
7              -2.940180e-08 -2.091002e-04 7.235109e-05 -4.181542e-08 -2.082872e-04 7.303072e-05 1.241361e-08 -8.130071e-07 -6.796261e-07
8              -3.598183e-08 -1.748126e-04 4.859041e-05 -4.858496e-08 -1.738402e-04 4.897641e-05 1.260313e-08 -9.723756e-07 -3.859975e-07
9              -3.527484e-08 -9.902045e-05 1.335173e-05 -4.629715e-08 -9.817796e-05 1.345885e-05 1.102231e-08 -8.424959e-07 -1.071189e-07
10             -2.664146e-08 -7.286382e-07 -2.654487e-05 -3.596022e-08 -4.159450e-07 -2.640173e-05 9.318754e-09 -3.126932e-07 -1.431410e-07
11             -1.114790e-08 8.782513e-05 -7.668202e-05 -1.892893e-08 8.752065e-05 -7.646336e-05 7.781036e-09 3.044775e-07 -2.186683e-07
12             3.888081e-09 1.368315e-04 -9.996815e-05 -2.593360e-09 1.361242e-04 -9.972928e-05 6.481441e-09 7.072308e-07 -2.388744e-07
13             1.537887e-08 1.409856e-04 -9.488413e-05 9.753216e-09 1.400521e-04 -9.466528e-05 5.625655e-09 9.334741e-07 -2.188511e-07
14             2.171588e-08 1.191038e-04 -8.287481e-05 1.662909e-08 1.180436e-04 -8.264549e-05 5.086800e-09 1.060250e-06 -2.293202e-07
15             2.352709e-08 7.542671e-05 -6.052806e-05 1.840630e-08 7.442371e-05 -6.024563e-05 5.120788e-09 1.003006e-06 -2.824353e-07
16             2.111617e-08 2.697367e-05 -3.309808e-05 1.558000e-08 2.614700e-05 -3.274419e-05 5.536170e-09 8.266724e-07 -3.538912e-07
17             1.559022e-08 -1.877532e-05 -4.586492e-06 9.649470e-09 -1.935800e-05 -4.178711e-06 5.940753e-09 5.826762e-07 -4.077812e-07
18             7.612848e-09 -5.542049e-05 3.435185e-05 1.713372e-09 -5.575106e-05 3.474974e-05 5.899476e-09 3.305745e-07 -3.978847e-07
19             8.714874e-10 -7.218071e-05 4.843860e-05 -4.665516e-09 -7.230156e-05 4.879706e-05 5.537003e-09 1.208519e-07 -3.584589e-07
20             -4.547445e-09 -7.300187e-05 5.409662e-05 -9.558113e-09 -7.297308e-05 5.440253e-05 5.010667e-09 -2.879597e-08 -3.059087e-07
21             -8.064332e-09 -6.167407e-05 5.168982e-05 -1.250387e-08 -6.156534e-05 5.193371e-05 4.439537e-09 -1.087228e-07 -2.438926e-07
22             -9.411622e-09 -4.314527e-05 4.245875e-05 -1.347436e-08 -4.301890e-05 4.264349e-05 4.062738e-09 -1.263737e-07 -1.847436e-07
23             -8.773425e-09 -2.157755e-05 2.788693e-05 -1.273332e-08 -2.147696e-05 2.802765e-05 3.959893e-09 -1.005911e-07 -1.407148e-07
24             -6.651274e-09 -1.102202e-06 1.004722e-05 -1.079203e-08 -1.052077e-06 1.016793e-05 4.140758e-09 -5.012478e-08 -1.207055e-07
25             -3.723669e-09 1.491213e-05 -8.239914e-06 -8.258918e-09 1.490420e-05 -8.113070e-06 4.535249e-09 7.927247e-09 -1.268440e-07
26             -7.099418e-10 2.445134e-05 -2.326941e-05 -5.715050e-09 2.439038e-05 -2.311538e-05 5.005108e-09 6.095814e-08 -1.540244e-07
27             1.795595e-09 2.742977e-05 -3.126154e-05 -3.597396e-09 2.732900e-05 -3.107254e-05 5.392991e-09 1.007759e-07 -1.890036e-07
28             3.428772e-09 2.548456e-05 -3.176229e-05 -2.149125e-09 2.536125e-05 -3.154028e-05 5.577897e-09 1.233168e-07 -2.220045e-07
29             4.040293e-09 2.065353e-05 -2.725447e-05 -1.453546e-09 2.052338e-05 -2.700617e-05 5.493839e-09 1.301496e-07 -2.482981e-07
30             3.696215e-09 1.414282e-05 -1.859051e-05 -1.464313e-09 1.401626e-05 -1.832893e-05 5.160527e-09 1.265583e-07 -2.615785e-07
31             2.649001e-09 6.974816e-06 -6.727263e-06 -2.012798e-09 6.859003e-06 -6.470067e-06 4.661799e-09 1.158133e-07 -2.571963e-07
32             1.257645e-09 4.628194e-07 5.327276e-06 -2.854597e-09 3.624172e-07 5.563944e-06 4.112242e-09 1.004023e-07 -2.366680e-07
33             -1.292725e-10 -4.335830e-06 1.396544e-05 -3.755792e-09 -4.418379e-06 1.417295e-05 3.626519e-09 8.254837e-08 -2.075056e-07
34             -1.249513e-09 -6.834256e-06 1.694680e-05 -4.556076e-09 -6.899409e-06 1.712588e-05 3.306563e-09 6.515267e-08 -1.790803e-07
35             -1.950927e-09 -7.400418e-06 1.575694e-05 -5.141030e-09 -7.451237e-06 1.591324e-05 3.190102e-09 5.081940e-08 -1.562991e-07
36             -2.215782e-09 -6.810813e-06 1.195560e-05 -5.462583e-09 -6.849900e-06 1.209743e-05 3.246801e-09 3.908616e-08 -1.418329e-07
37             -2.114225e-09 -5.387421e-06 6.347936e-06 -5.526594e-09 -5.417104e-06 6.485162e-06 3.412368e-09 2.968256e-08 -1.372261e-07
38             -1.771866e-09 -3.313554e-06 -2.106564e-07 -5.384074e-09 -3.336811e-06 -6.814841e-08 3.612207e-09 2.325710e-08 -1.425080e-07
39             -1.339942e-09 -1.032242e-06 -5.899776e-06 -5.115530e-09 -1.052127e-06 -5.745029e-06 3.775588e-09 1.988470e-08 -1.547466e-07
40             -9.536106e-10 9.924603e-07 -9.215345e-06 -4.804417e-09 9.732860e-07 -9.046363e-06 3.850806e-09 1.917428e-08 -1.689828e-07
41             -7.010732e-10 2.437175e-06 -9.806460e-06 -4.517172e-09 2.416874e-06 -9.625187e-06 3.816099e-09 2.030162e-08 -1.812732e-07
42             -6.191578e-10 3.055487e-06 -8.373240e-06 -4.301537e-09 3.033419e-06 -8.183803e-06 3.682379e-09 2.206794e-08 -1.894371e-07
43             -6.921245e-10 3.142664e-06 -6.005400e-06 -4.180791e-09 3.118318e-06 -5.812346e-06 3.488666e-09 2.434588e-08 -1.930540e-07
44             -8.739387e-10 2.964841e-06 -3.286541e-06 -4.155518e-09 2.937590e-06 -3.094419e-06 3.281579e-09 2.725105e-08 -1.921227e-07
45             -1.109894e-09 2.639557e-06 -6.643253e-07 -4.210356e-09 2.609088e-06 -4.770864e-07 3.100462e-09 3.046829e-08 -1.872389e-07
46             -1.350298e-09 2.237600e-06 1.380500e-06 -4.320347e-09 2.204174e-06 1.560331e-06 2.970049e-09 3.342674e-08 -1.798303e-07
47             -1.556802e-09 1.829346e-06 2.448137e-06 -4.457097e-09 1.793563e-06 2.619954e-06 2.900295e-09 3.578293e-08 -1.718177e-07
48             -1.707372e-09 1.473879e-06 2.464529e-06 -4.594721e-09 1.436531e-06 2.629540e-06 2.887349e-09 3.734779e-08 -1.650113e-07
49             -1.798129e-09 1.213294e-06 1.672703e-06 -4.714175e-09 1.175136e-06 1.833205e-06 2.916045e-09 3.815814e-08 -1.605023e-07
50             -1.840177e-09 1.059789e-06 5.225903e-07 -4.804872e-09 1.021462e-06 6.809902e-07 2.964695e-09 3.832712e-08 -1.583999e-07
51             -1.851874e-09 1.003121e-06 -5.888261e-07 -4.864136e-09 9.651217e-07 -4.306103e-07 3.012262e-09 3.799879e-08 -1.582158e-07
52             -1.850200e-09 1.045695e-06 -1.486622e-06 -4.895293e-09 1.008272e-06 -1.327319e-06 3.045093e-09 3.742374e-08 -1.593028e-07
53             -1.847927e-09 1.185880e-06 -2.082643e-06 -4.905279e-09 1.148906e-06 -1.921645e-06 3.057352e-09 3.697364e-08 -1.609973e-07
54             -1.852879e-09 1.398151e-06 -2.336543e-06 -4.902617e-09 1.361259e-06 -2.173897e-06 3.049738e-09 3.689286e-08 -1.626457e-07
55             -1.868283e-09 1.642035e-06 -2.269426e-06 -4.895382e-09 1.604770e-06 -2.105693e-06 3.027099e-09 3.726473e-08 -1.637338e-07
56             -1.892914e-09 1.870837e-06 -1.965060e-06 -4.889684e-09 1.832747e-06 -1.801086e-06 2.996771e-09 3.808944e-08 -1.639747e-07
57             -1.922703e-09 2.046728e-06 -1.547143e-06 -4.889008e-09 2.007518e-06 -1.383791e-06 2.966305e-09 3.921004e-08 -1.633513e-07
58             -1.952826e-09 2.151387e-06 -1.141535e-06 -4.894437e-09 2.110844e-06 -9.794721e-07 2.941611e-09 4.054351e-08 -1.620626e-07
59             -1.978800e-09 2.187929e-06 -8.422160e-07 -4.905125e-09 2.146010e-06 -6.817756e-07 2.926325e-09 4.191928e-08 -1.604404e-07
60             -1.998252e-09 2.177595e-06 -6.907733e-07 -4.919198e-09 2.134366e-06 -5.320318e-07 2.920946e-09 4.322923e-08 -1.587415e-07
61             -2.010741e-09 2.148621e-06 -6.776277e-07 -4.934406e-09 2.104156e-06 -5.204623e-07 2.923665e-09 4.446467e-08 -1.571654e-07
62             -2.017206e-09 2.124505e-06 -7.613688e-07 -4.948573e-09 2.078834e-06 -6.055079e-07 2.931367e-09 4.567163e-08 -1.558609e-07
63             -2.019344e-09 2.119738e-06 -8.944807e-07 -4.960001e-09 2.072872e-06 -7.396422e-07 2.940657e-09 4.686576e-08 -1.548386e-07
64             -2.019131e-09 2.139329e-06 -1.036337e-06 -4.967880e-09 2.091278e-06 -8.822583e-07 2.948749e-09 4.805046e-08 -1.540783e-07
65             -2.018066e-09 2.182158e-06 -1.152617e-06 -4.972172e-09 2.132918e-06 -9.991460e-07 2.954106e-09 4.923994e-08 -1.534707e-07
66             -2.017186e-09 2.243440e-06 -1.222479e-06 -4.973410e-09 2.193012e-06 -1.069557e-06 2.956224e-09 5.042793e-08 -1.529211e-07
67             -2.017194e-09 2.315765e-06 -1.235814e-06 -4.972543e-09 2.264126e-06 -1.083494e-06 2.955349e-09 5.163931e-08 -1.523198e-07
68             -2.018380e-09 2.386042e-06 -1.196671e-06 -4.970677e-09 2.333132e-06 -1.045063e-06 2.952297e-09 5.290980e-08 -1.516088e-07
69             -2.020797e-09 2.437541e-06 -1.127370e-06 -4.968884e-09 2.383352e-06 -9.766232e-07 2.948087e-09 5.418938e-08 -1.507466e-07
70             -2.024270e-09 2.460342e-06 -1.059949e-06 -4.967970e-09 2.404948e-06 -9.101504e-07 2.943700e-09 5.539410e-08 -1.497984e-07
71             -2.028434e-09 2.457285e-06 -1.018018e-06 -4.968295e-09 2.400784e-06 -8.692058e-07 2.939861e-09 5.650059e-08 -1.488119e-07
72             -2.032931e-09 2.439059e-06 -1.009274e-06 -4.969761e-09 2.381564e-06 -8.613778e-07 2.936830e-09 5.749443e-08 -1.478960e-07
73             -2.037455e-09 2.416625e-06 -1.030030e-06 -4.972020e-09 2.358286e-06 -8.829570e-07 2.934565e-09 5.833984e-08 -1.470732e-07
74             -2.041775e-09 2.397730e-06 -1.071543e-06 -4.974664e-09 2.338672e-06 -9.251746e-07 2.932889e-09 5.905787e-08 -1.463680e-07
75             -2.045847e-09 2.387846e-06 -1.123921e-06 -4.977358e-09 2.328178e-06 -9.781575e-07 2.931511e-09 5.966810e-08 -1.457639e-07
76             -2.049732e-09 2.388786e-06 -1.176693e-06 -4.979820e-09 2.328570e-06 -1.031450e-06 2.930088e-09 6.021550e-08 -1.452428e-07
77             -2.053474e-09 2.398983e-06 -1.221450e-06 -4.981868e-09 2.338280e-06 -1.076675e-06 2.928394e-09 6.070364e-08 -1.447749e-07
78             -2.057067e-09 2.414917e-06 -1.250894e-06 -4.983486e-09 2.353782e-06 -1.106583e-06 2.926419e-09 6.113443e-08 -1.443115e-07
79             -2.060663e-09 2.432571e-06 -1.261093e-06 -4.984789e-09 2.371057e-06 -1.117267e-06 2.924126e-09 6.151420e-08 -1.438260e-07
80             -2.064290e-09 2.448813e-06 -1.252601e-06 -4.985910e-09 2.386972e-06 -1.109318e-06 2.921620e-09 6.184083e-08 -1.432830e-07
81             -2.068029e-09 2.461914e-06 -1.230372e-06 -4.987026e-09 2.399792e-06 -1.087697e-06 2.918996e-09 6.212154e-08 -1.426757e-07
82             -2.071850e-09 2.471384e-06 -1.201469e-06 -4.988287e-09 2.409034e-06 -1.059478e-06 2.916438e-09 6.235059e-08 -1.419917e-07
83             -2.075679e-09 2.477877e-06 -1.172777e-06 -4.989786e-09 2.415332e-06 -1.031518e-06 2.914107e-09 6.254496e-08 -1.412589e-07
84             -2.079429e-09 2.482134e-06 -1.150105e-06 -4.991563e-09 2.419428e-06 -1.009605e-06 2.912134e-09 6.270593e-08 -1.405000e-07
85             -2.083072e-09 2.484814e-06 -1.136892e-06 -4.993631e-09 2.421991e-06 -9.971494e-07 2.910559e-09 6.282309e-08 -1.397425e-07
86             -2.086625e-09 2.486309e-06 -1.134060e-06 -4.995964e-09 2.423424e-06 -9.950445e-07 2.909339e-09 6.288498e-08 -1.390157e-07
87             -2.090054e-09 2.486927e-06 -1.139945e-06 -4.998504e-09 2.424047e-06 -1.001614e-06 2.908450e-09 6.287923e-08 -1.383305e-07
88             -2.093365e-09 2.485999e-06 -1.152502e-06 -5.001187e-09 2.423188e-06 -1.014804e-06 2.907822e-09 6.281102e-08 -1.376983e-07
89             -2.096567e-09 2.482691e-06 -1.168908e-06 -5.003952e-09 2.420008e-06 -1.031792e-06 2.907385e-09 6.268317e-08 -1.371155e-07
90             -2.099678e-09 2.476194e-06 -1.186651e-06 -5.006769e-09 2.413707e-06 -1.050080e-06 2.907091e-09 6.248662e-08 -1.365704e-07
91             -2.102735e-09 2.466405e-06 -1.203725e-06 -5.009610e-09 2.404190e-06 -1.067665e-06 2.906875e-09 6.221540e-08 -1.360594e-07
92             -2.105737e-09 2.454009e-06 -1.218705e-06 -5.012457e-09 2.392143e-06 -1.083126e-06 2.906720e-09 6.186608e-08 -1.355794e-07
93             -2.108659e-09 2.440186e-06 -1.230871e-06 -5.015305e-09 2.378739e-06 -1.095756e-06 2.906646e-09 6.144695e-08 -1.351155e-07
94             -2.111493e-09 2.426319e-06 -1.239902e-06 -5.018162e-09 2.365347e-06 -1.105244e-06 2.906669e-09 6.097231e-08 -1.346576e-07
95             -2.114239e-09 2.413728e-06 -1.245924e-06 -5.021053e-09 2.353275e-06 -1.111719e-06 2.906814e-09 6.045262e-08 -1.342050e-07
96             -2.116872e-09 2.403391e-06 -1.249522e-06 -5.023992e-09 2.343488e-06 -1.115776e-06 2.907120e-09 5.990282e-08 -1.337465e-07
97             -2.119384e-09 2.395358e-06 -1.251105e-06 -5.026988e-09 2.336029e-06 -1.117822e-06 2.907604e-09 5.932866e-08 -1.332835e-07
98             -2.121803e-09 2.389387e-06 -1.251044e-06 -5.030052e-09 2.330653e-06 -1.118234e-06 2.908249e-09 5.873452e-08 -1.328102e-07
99             -2.124160e-09 2.384698e-06 -1.250040e-06 -5.033208e-09 2.326574e-06 -1.117713e-06 2.909048e-09 5.812411e-08 -1.323273e-07
100            -2.126483e-09 2.380409e-06 -1.248695e-06 -5.036473e-09 2.322914e-06 -1.116857e-06 2.909990e-09 5.749552e-08 -1.318376e-07
101            -2.128789e-09 2.375889e-06 -1.247512e-06 -5.039856e-09 2.319037e-06 -1.116166e-06 2.911066e-09 5.685236e-08 -1.313465e-07
102            -2.131080e-09 2.370824e-06 -1.246904e-06 -5.043349e-09 2.314629e-06 -1.116044e-06 2.912269e-09 5.619536e-08 -1.308598e-07
103            -2.133356e-09 2.365166e-06 -1.247197e-06 -5.046938e-09 2.309642e-06 -1.116816e-06 2.913583e-09 5.552380e-08 -1.303811e-07
104            -2.135601e-09 2.359086e-06 -1.248570e-06 -5.050609e-09 2.304247e-06 -1.118659e-06 2.915007e-09 5.483871e-08 -1.299113e-07
105            -2.137803e-09 2.352822e-06 -1.251068e-06 -5.054333e-09 2.298681e-06 -1.121615e-06 2.916530e-09 5.414081e-08 -1.294530e-07
106            -2.139967e-09 2.346625e-06 -1.254539e-06 -5.058110e-09 2.293195e-06 -1.125536e-06 2.918143e-09 5.342989e-08 -1.290030e-07
107            -2.142104e-09 2.340593e-06 -1.258700e-06 -5.061943e-09 2.287881e-06 -1.130136e-06 2.919838e-09 5.271198e-08 -1.285645e-07
108            -2.144211e-09 2.334787e-06 -1.262893e-06 -5.065839e-09 2.282796e-06 -1.134755e-06 2.921628e-09 5.199165e-08 -1.281384e-07
109            -2.146298e-09 2.328747e-06 -1.266912e-06 -5.069795e-09 2.277477e-06 -1.139186e-06 2.923498e-09 5.126963e-08 -1.277252e-07
110            -2.148330e-09 2.322247e-06 -1.270840e-06 -5.073787e-09 2.271702e-06 -1.143517e-06 2.925458e-09 5.054467e-08 -1.273224e-07
111            -2.150299e-09 2.315190e-06 -1.274635e-06 -5.077801e-09 2.265374e-06 -1.147707e-06 2.927501e-09 4.981530e-08 -1.269287e-07
112            -2.152205e-09 2.307547e-06 -1.278319e-06 -5.081836e-09 2.258466e-06 -1.151777e-06 2.929630e-09 4.908137e-08 -1.265415e-07
113            -2.154045e-09 2.299493e-06 -1.281967e-06 -5.085879e-09 2.251146e-06 -1.155806e-06 2.931834e-09 4.834658e-08 -1.261613e-07
114            -2.155807e-09 2.291192e-06 -1.285677e-06 -5.089917e-09 2.243583e-06 -1.159887e-06 2.934110e-09 4.760894e-08 -1.257897e-07
115            -2.157499e-09 2.282746e-06 -1.289499e-06 -5.093939e-09 2.235878e-06 -1.164072e-06 2.936440e-09 4.686791e-08 -1.254267e-07
116            -2.159115e-09 2.274366e-06 -1.293531e-06 -5.097935e-09 2.228241e-06 -1.168458e-06 2.938820e-09 4.612506e-08 -1.250722e-07
117            -2.160650e-09 2.266293e-06 -1.297353e-06 -5.101899e-09 2.220910e-06 -1.172628e-06 2.941249e-09 4.538284e-08 -1.247250e-07
118            -2.162096e-09 2.258683e-06 -1.300837e-06 -5.105829e-09 2.214040e-06 -1.176454e-06 2.943733e-09 4.464324e-08 -1.243830e-07
119            -2.163474e-09 2.251601e-06 -1.303890e-06 -5.109730e-09 2.207694e-06 -1.179846e-06 2.946256e-09 4.390706e-08 -1.240438e-07
120            -2.164798e-09 2.244951e-06 -1.306712e-06 -5.113602e-09 2.201775e-06 -1.183005e-06 2.948804e-09 4.317537e-08 -1.237064e-07
121            -2.166067e-09 2.238802e-06 -1.309072e-06 -5.117437e-09 2.196353e-06 -1.185700e-06 2.951370e-09 4.244914e-08 -1.233721e-07
122            -2.167276e-09 2.232994e-06 -1.311051e-06 -5.121220e-09 2.191264e-06 -1.188010e-06 2.953944e-09 4.173043e-08 -1.230408e-07
123            -2.168417e-09 2.227376e-06 -1.312770e-06 -5.124936e-09 2.186358e-06 -1.190058e-06 2.956519e-09 4.101855e-08 -1.227120e-07
124            -2.169482e-09 2.221836e-06 -1.314365e-06 -5.128574e-09 2.181524e-06 -1.191980e-06 2.959091e-09 4.031146e-08 -1.223851e-07
125            -2.170466e-09 2.216334e-06 -1.315974e-06 -5.132123e-09 2.176724e-06 -1.193913e-06 2.961657e-09 3.961040e-08 -1.220611e-07
126            -2.171359e-09 2.211041e-06 -1.317472e-06 -5.135572e-09 2.172124e-06 -1.195733e-06 2.964213e-09 3.891675e-08 -1.217387e-07
127            -2.172157e-09 2.205846e-06 -1.319244e-06 -5.138912e-09 2.167617e-06 -1.197824e-06 2.966756e-09 3.822967e-08 -1.214201e-07
128            -2.172856e-09 2.200630e-06 -1.321277e-06 -5.142134e-09 2.163080e-06 -1.200171e-06 2.969278e-09 3.755031e-08 -1.211066e-07
129            -2.173448e-09 2.195322e-06 -1.323582e-06 -5.145223e-09 2.158443e-06 -1.202783e-06 2.971775e-09 3.687896e-08 -1.207989e-07
130            -2.173935e-09 2.189893e-06 -1.326195e-06 -5.148175e-09 2.153680e-06 -1.205699e-06 2.974239e-09 3.621236e-08 -1.204967e-07
131            -2.174331e-09 2.184506e-06 -1.329205e-06 -5.150992e-09 2.148955e-06 -1.209005e-06 2.976662e-09 3.555132e-08 -1.202006e-07
132            -2.174632e-09 2.179230e-06 -1.332570e-06 -5.153672e-09 2.144334e-06 -1.212660e-06 2.979040e-09 3.489636e-08 -1.199101e-07
133            -2.174830e-09 2.173950e-06 -1.336138e-06 -5.156208e-09 2.139703e-06 -1.216513e-06 2.981378e-09 3.424697e-08 -1.196252e-07
134            -2.174912e-09 2.168611e-06 -1.339773e-06 -5.158588e-09 2.135006e-06 -1.220426e-06 2.983677e-09 3.360483e-08 -1.193465e-07
135            -2.174876e-09 2.163204e-06 -1.343362e-06 -5.160814e-09 2.130235e-06 -1.224288e-06 2.985938e-09 3.296868e-08 -1.190741e-07
136            -2.174719e-09 2.157757e-06 -1.346809e-06 -5.162884e-09 2.125419e-06 -1.228003e-06 2.988165e-09 3.233841e-08 -1.188059e-07
137            -2.174441e-09 2.152330e-06 -1.350082e-06 -5.164804e-09 2.120618e-06 -1.231540e-06 2.990363e-09 3.171288e-08 -1.185414e-07
138            -2.174055e-09 2.146996e-06 -1.353194e-06 -5.166580e-09 2.115903e-06 -1.234915e-06 2.992525e-09 3.109324e-08 -1.182791e-07
139            -2.173566e-09 2.141785e-06 -1.356156e-06 -5.168214e-09 2.111305e-06 -1.238136e-06 2.994648e-09 3.047915e-08 -1.180202e-07
140            -2.172984e-09 2.136710e-06 -1.358996e-06 -5.169713e-09 2.106841e-06 -1.241232e-06 2.996729e-09 2.986963e-08 -1.177634e-07
141            -2.172318e-09 2.131793e-06 -1.361767e-06 -5.171083e-09 2.102530e-06 -1.244258e-06 2.998765e-09 2.926241e-08 -1.175094e-07
142            -2.171574e-09 2.127147e-06 -1.364537e-06 -5.172330e-09 2.098488e-06 -1.247279e-06 3.000756e-09 2.865910e-08 -1.172583e-07
143            -2.170754e-09 2.122752e-06 -1.367313e-06 -5.173463e-09 2.094692e-06 -1.250305e-06 3.002709e-09 2.806000e-08 -1.170087e-07
144            -2.169862e-09 2.118533e-06 -1.370062e-06 -5.174489e-09 2.091068e-06 -1.253302e-06 3.004626e-09 2.746502e-08 -1.167602e-07
145            -2.168902e-09 2.114416e-06 -1.372754e-06 -5.175408e-09 2.087541e-06 -1.256240e-06 3.006506e-09 2.687404e-08 -1.165135e-07
146            -2.167876e-09 2.110351e-06 -1.375380e-06 -5.176223e-09 2.084064e-06 -1.259111e-06 3.008347e-09 2.628650e-08 -1.162691e-07
147            -2.166788e-09 2.106308e-06 -1.377953e-06 -5.176941e-09 2.080605e-06 -1.261927e-06 3.010153e-09 2.570269e-08 -1.160265e-07
148            -2.165639e-09 2.102266e-06 -1.380498e-06 -5.177565e-09 2.077143e-06 -1.264712e-06 3.011926e-09 2.512334e-08 -1.157857e-07
149            -2.164444e-09 2.098214e-06 -1.383042e-06 -5.178099e-09 2.073666e-06 -1.267496e-06 3.013655e-09 2.454806e-08 -1.155461e-07
150            -2.163208e-09 2.094133e-06 -1.385486e-06 -5.178550e-09 2.070157e-06 -1.270179e-06 3.015342e-09 2.397547e-08 -1.153071e-07
151            -2.161932e-09 2.090119e-06 -1.388089e-06 -5.178917e-09 2.066714e-06 -1.273019e-06 3.016985e-09 2.340533e-08 -1.150695e-07
152            -2.160610e-09 2.086288e-06 -1.390755e-06 -5.179196e-09 2.063449e-06 -1.275921e-06 3.018587e-09 2.283842e-08 -1.148337e-07
153            -2.159237e-09 2.082647e-06 -1.393561e-06 -5.179383e-09 2.060371e-06 -1.278961e-06 3.020146e-09 2.227522e-08 -1.146001e-07
154            -2.157801e-09 2.079069e-06 -1.396495e-06 -5.179473e-09 2.057353e-06 -1.282125e-06 3.021672e-09 2.171628e-08 -1.143691e-07
155            -2.156309e-09 2.075557e-06 -1.399532e-06 -5.179465e-09 2.054396e-06 -1.285390e-06 3.023156e-09 2.116128e-08 -1.141416e-07
156            -2.154764e-09 2.072234e-06 -1.402658e-06 -5.179364e-09 2.051624e-06 -1.288741e-06 3.024600e-09 2.061021e-08 -1.139169e-07
157            -2.153179e-09 2.069054e-06 -1.405853e-06 -5.179179e-09 2.048991e-06 -1.292159e-06 3.026000e-09 2.006256e-08 -1.136943e-07
158            -2.151560e-09 2.065905e-06 -1.409061e-06 -5.178914e-09 2.046388e-06 -1.295587e-06 3.027354e-09 1.951763e-08 -1.134740e-07
159            -2.149899e-09 2.062750e-06 -1.412212e-06 -5.178562e-09 2.043774e-06 -1.298957e-06 3.028662e-09 1.897591e-08 -1.132555e-07
160            -2.148193e-09 2.059605e-06 -1.415227e-06 -5.178117e-09 2.041167e-06 -1.302188e-06 3.029924e-09 1.843735e-08 -1.130387e-07
161            -2.146445e-09 2.056472e-06 -1.418109e-06 -5.177586e-09 2.038569e-06 -1.305285e-06 3.031141e-09 1.790285e-08 -1.128238e-07
162            -2.144663e-09 2.053452e-06 -1.420896e-06 -5.176979e-09 2.036079e-06 -1.308287e-06 3.032316e-09 1.737386e-08 -1.126096e-07
163            -2.142863e-09 2.050624e-06 -1.423639e-06 -5.176308e-09 2.033773e-06 -1.311243e-06 3.033445e-09 1.685092e-08 -1.123960e-07
164            -2.141055e-09 2.047881e-06 -1.426354e-06 -5.175588e-09 2.031547e-06 -1.314170e-06 3.034533e-09 1.633402e-08 -1.121839e-07
165            -2.139255e-09 2.045188e-06 -1.429113e-06 -5.174836e-09 2.029365e-06 -1.317139e-06 3.035581e-09 1.582288e-08 -1.119739e-07
166            -2.137478e-09 2.042430e-06 -1.431947e-06 -5.174064e-09 2.027113e-06 -1.320180e-06 3.036585e-09 1.531727e-08 -1.117664e-07
167            -2.135736e-09 2.039505e-06 -1.434862e-06 -5.173274e-09 2.024688e-06 -1.323301e-06 3.037538e-09 1.481717e-08 -1.115614e-07
168            -2.134030e-09 2.036433e-06 -1.437834e-06 -5.172475e-09 2.022112e-06 -1.326476e-06 3.038446e-09 1.432118e-08 -1.113588e-07
169            -2.132364e-09 2.033270e-06 -1.440867e-06 -5.171673e-09 2.019441e-06 -1.329709e-06 3.039310e-09 1.382936e-08 -1.111586e-07
170            -2.130730e-09 2.030079e-06 -1.443941e-06 -5.170863e-09 2.016737e-06 -1.332980e-06 3.040133e-09 1.334169e-08 -1.109608e-07
171            -2.129121e-09 2.026839e-06 -1.447006e-06 -5.170039e-09 2.013982e-06 -1.336240e-06 3.040918e-09 1.285728e-08 -1.107660e-07
172            -2.127536e-09 2.023556e-06 -1.450013e-06 -5.169201e-09 2.011181e-06 -1.339439e-06 3.041666e-09 1.237559e-08 -1.105740e-07
173            -2.125983e-09 2.020371e-06 -1.452989e-06 -5.168358e-09 2.008473e-06 -1.342604e-06 3.042375e-09 1.189742e-08 -1.103842e-07
174            -2.124468e-09 2.017410e-06 -1.455920e-06 -5.167510e-09 2.005987e-06 -1.345724e-06 3.043043e-09 1.142377e-08 -1.101960e-07
175            -2.122991e-09 2.014586e-06 -1.458812e-06 -5.166660e-09 2.003630e-06 -1.348803e-06 3.043669e-09 1.095608e-08 -1.100095e-07
176            -2.121552e-09 2.011724e-06 -1.461714e-06 -5.165808e-09 2.001230e-06 -1.351889e-06 3.044257e-09 1.049440e-08 -1.098251e-07
177            -2.120153e-09 2.008701e-06 -1.464625e-06 -5.164956e-09 1.998663e-06 -1.354982e-06 3.044804e-09 1.003806e-08 -1.096428e-07
178            -2.118799e-09 2.005468e-06 -1.467549e-06 -5.164107e-09 1.995882e-06 -1.358086e-06 3.045308e-09 9.585628e-09 -1.094629e-07
179            -2.117492e-09 2.002029e-06 -1.470499e-06 -5.163263e-09 1.992893e-06 -1.361214e-06 3.045771e-09 9.136209e-09 -1.092847e-07
180            -2.116230e-09 1.998370e-06 -1.473482e-06 -5.162422e-09 1.989681e-06 -1.364374e-06 3.046192e-09 8.689408e-09 -1.091084e-07
181            -2.115012e-09 1.994520e-06 -1.476481e-06 -5.161586e-09 1.986275e-06 -1.367546e-06 3.046574e-09 8.245247e-09 -1.089342e-07
182            -2.113844e-09 1.990546e-06 -1.479484e-06 -5.160760e-09 1.982743e-06 -1.370722e-06 3.046916e-09 7.803875e-09 -1.087618e-07
183            -2.112730e-09 1.986546e-06 -1.482478e-06 -5.159948e-09 1.979181e-06 -1.373887e-06 3.047219e-09 7.365037e-09 -1.085906e-07
184            -2.111668e-09 1.982613e-06 -1.485470e-06 -5.159154e-09 1.975683e-06 -1.377048e-06 3.047486e-09 6.929702e-09 -1.084211e-07
185            -2.110657e-09 1.978738e-06 -1.488469e-06 -5.158375e-09 1.972240e-06 -1.380216e-06 3.047718e-09 6.498916e-09 -1.082535e-07
186            -2.109695e-09 1.974890e-06 -1.491478e-06 -5.157610e-09 1.968817e-06 -1.383391e-06 3.047915e-09 6.072823e-09 -1.080879e-07
187            -2.108773e-09 1.971149e-06 -1.494528e-06 -5.156849e-09 1.965497e-06 -1.386603e-06 3.048076e-09 5.651837e-09 -1.079248e-07
188            -2.107887e-09 1.967414e-06 -1.497573e-06 -5.156091e-09 1.962178e-06 -1.389809e-06 3.048204e-09 5.236580e-09 -1.077641e-07
189            -2.107031e-09 1.963588e-06 -1.500636e-06 -5.155335e-09 1.958761e-06 -1.393030e-06 3.048304e-09 4.826930e-09 -1.076061e-07
190            -2.106206e-09 1.959560e-06 -1.503801e-06 -5.154581e-09 1.955138e-06 -1.396351e-06 3.048375e-09 4.422090e-09 -1.074508e-07
191            -2.105415e-09 1.955176e-06 -1.507001e-06 -5.153833e-09 1.951156e-06 -1.399702e-06 3.048418e-09 4.020728e-09 -1.072983e-07
192            -2.104664e-09 1.950477e-06 -1.510180e-06 -5.153092e-09 1.946856e-06 -1.403032e-06 3.048429e-09 3.621352e-09 -1.071480e-07
193            -2.103941e-09 1.945712e-06 -1.513287e-06 -5.152347e-09 1.942488e-06 -1.406287e-06 3.048406e-09 3.223742e-09 -1.069998e-07
194            -2.103250e-09 1.941037e-06 -1.516308e-06 -5.151600e-09 1.938208e-06 -1.409455e-06 3.048349e-09 2.828978e-09 -1.068530e-07
195            -2.102597e-09 1.936523e-06 -1.519253e-06 -5.150859e-09 1.934085e-06 -1.412546e-06 3.048262e-09 2.437981e-09 -1.067075e-07
196            -2.101989e-09 1.932181e-06 -1.522141e-06 -5.150135e-09 1.930129e-06 -1.415577e-06 3.048146e-09 2.051734e-09 -1.065637e-07
197            -2.101433e-09 1.927980e-06 -1.524995e-06 -5.149437e-09 1.926310e-06 -1.418574e-06 3.048004e-09 1.670727e-09 -1.064217e-07
198            -2.100932e-09 1.923880e-06 -1.527836e-06 -5.148771e-09 1.922585e-06 -1.421555e-06 3.047840e-09 1.295426e-09 -1.062814e-07
199            -2.100489e-09 1.919860e-06 -1.530679e-06 -5.148141e-09 1.918934e-06 -1.424536e-06 3.047652e-09 9.257325e-10 -1.061430e-07
200            -2.100103e-09 1.915918e-06 -1.533531e-06 -5.147547e-09 1.915356e-06 -1.427524e-06 3.047444e-09 5.618389e-10 -1.060067e-07
201            -2.099770e-09 1.912046e-06 -1.536409e-06 -5.146987e-09 1.911842e-06 -1.430536e-06 3.047217e-09 2.040533e-10 -1.058727e-07
202            -2.099489e-09 1.908220e-06 -1.539344e-06 -5.146463e-09 1.908368e-06 -1.433603e-06 3.046974e-09 -1.478092e-10 -1.057413e-07
203            -2.099256e-09 1.904393e-06 -1.542305e-06 -5.145972e-09 1.904887e-06 -1.436693e-06 3.046716e-09 -4.939343e-10 -1.056124e-07
204            -2.099067e-09 1.900526e-06 -1.545265e-06 -5.145512e-09 1.901361e-06 -1.439779e-06 3.046445e-09 -8.348167e-10 -1.054859e-07
205            -2.098918e-09 1.896591e-06 -1.548198e-06 -5.145080e-09 1.897762e-06 -1.442836e-06 3.046162e-09 -1.170730e-09 -1.053620e-07
206            -2.098806e-09 1.892577e-06 -1.551082e-06 -5.144672e-09 1.894079e-06 -1.445842e-06 3.045867e-09 -1.501955e-09 -1.052406e-07
207            -2.098727e-09 1.888495e-06 -1.553908e-06 -5.144289e-09 1.890324e-06 -1.448786e-06 3.045562e-09 -1.828878e-09 -1.051216e-07
208            -2.098679e-09 1.884367e-06 -1.556676e-06 -5.143930e-09 1.886519e-06 -1.451671e-06 3.045251e-09 -2.151943e-09 -1.050047e-07
209            -2.098661e-09 1.880225e-06 -1.559393e-06 -5.143594e-09 1.882696e-06 -1.454503e-06 3.044933e-09 -2.471229e-09 -1.048899e-07
210            -2.098671e-09 1.876094e-06 -1.562072e-06 -5.143283e-09 1.878881e-06 -1.457295e-06 3.044612e-09 -2.786870e-09 -1.047772e-07
211            -2.098708e-09 1.871997e-06 -1.564721e-06 -5.142998e-09 1.875095e-06 -1.460055e-06 3.044291e-09 -3.098832e-09 -1.046666e-07
212            -2.098768e-09 1.867947e-06 -1.567347e-06 -5.142739e-09 1.871354e-06 -1.462789e-06 3.043971e-09 -3.407108e-09 -1.045581e-07
213            -2.098852e-09 1.863951e-06 -1.569953e-06 -5.142505e-09 1.867663e-06 -1.465501e-06 3.043654e-09 -3.711719e-09 -1.044520e-07
214            -2.098956e-09 1.860013e-06 -1.572538e-06 -5.142295e-09 1.864026e-06 -1.468190e-06 3.043339e-09 -4.012603e-09 -1.043484e-07
215            -2.099077e-09 1.856131e-06 -1.575100e-06 -5.142107e-09 1.860441e-06 -1.470853e-06 3.043030e-09 -4.309764e-09 -1.042474e-07
216            -2.099211e-09 1.852306e-06 -1.577655e-06 -5.141938e-09 1.856909e-06 -1.473506e-06 3.042727e-09 -4.603198e-09 -1.041490e-07
217            -2.099358e-09 1.848556e-06 -1.580231e-06 -5.141791e-09 1.853449e-06 -1.476178e-06 3.042433e-09 -4.893010e-09 -1.040533e-07