/*--------------------------------*- C++ -*----------------------------------*\
| =========                 |                                                 |
| \\      /  F ield         | OpenFOAM: The Open Source CFD Toolbox           |
|  \\    /   O peration     | Version:  2512                                  |
|   \\  /    A nd           | Website:  www.openfoam.com                      |
|    \\/     M anipulation  |                                                 |
\*---------------------------------------------------------------------------*/
FoamFile
{
    version     2.0;
    format      ascii;
    arch        "LSB;label=32;scalar=64";
    class       volScalarField;
    location    "179";
    object      p;
}
// * * * * * * * * * * * * * * * * * * * * * * * * * * * * * * * * * * * * * //

dimensions      [0 2 -2 0 0 0 0];

internalField   nonuniform List<scalar> 
248793
(
5.44742e-05
5.44128e-05
5.42561e-05
5.40044e-05
5.36536e-05
5.31891e-05
5.25908e-05
5.18349e-05
5.08927e-05
4.97304e-05
4.83084e-05
4.65818e-05
4.45005e-05
4.20107e-05
3.90559e-05
3.55803e-05
3.15325e-05
2.68709e-05
2.15703e-05
1.56301e-05
9.0828e-06
2.00278e-06
-5.48689e-06
-1.32105e-05
-2.09415e-05
-2.84108e-05
-3.5324e-05
-4.13865e-05
-4.6333e-05
-4.9959e-05
-5.21467e-05
-5.28801e-05
-5.22454e-05
-5.04156e-05
-4.76238e-05
-4.41315e-05
-4.01981e-05
-3.60582e-05
-3.19073e-05
-2.78959e-05
-2.41311e-05
-2.06805e-05
-1.75793e-05
-1.48377e-05
-1.24475e-05
-1.03882e-05
-8.63205e-06
-7.14732e-06
-5.90149e-06
-4.86281e-06
-4.00161e-06
-3.29091e-06
-2.70671e-06
-2.22805e-06
-1.83688e-06
-1.51781e-06
-1.25789e-06
-1.04627e-06
-8.73954e-07
-7.33499e-07
-6.18807e-07
-5.24892e-07
-4.47694e-07
-3.8392e-07
-3.30906e-07
-2.86505e-07
-2.48991e-07
-2.16978e-07
-1.89354e-07
-1.65231e-07
-1.43896e-07
-1.24778e-07
-1.07418e-07
-9.14451e-08
-7.65542e-08
-6.24892e-08
-4.9029e-08
-3.59915e-08
-2.31317e-08
-1.13887e-08
5.44916e-05
5.44307e-05
5.42755e-05
5.40263e-05
5.36787e-05
5.32184e-05
5.26254e-05
5.18758e-05
5.09412e-05
4.97875e-05
4.83754e-05
4.66597e-05
4.45903e-05
4.21126e-05
3.91697e-05
3.57049e-05
3.16657e-05
2.70087e-05
2.17072e-05
1.57586e-05
9.19359e-06
2.08507e-06
-5.44461e-06
-1.32193e-05
-2.10102e-05
-2.85445e-05
-3.55224e-05
-4.16426e-05
-4.66332e-05
-5.02841e-05
-5.24747e-05
-5.31891e-05
-5.25168e-05
-5.06365e-05
-4.77879e-05
-4.42389e-05
-4.02539e-05
-3.60705e-05
-3.18856e-05
-2.78497e-05
-2.40689e-05
-2.06094e-05
-1.7505e-05
-1.47643e-05
-1.23779e-05
-1.03242e-05
-8.57445e-06
-7.09653e-06
-5.85738e-06
-4.82501e-06
-3.96958e-06
-3.26402e-06
-2.68433e-06
-2.20955e-06
-1.82169e-06
-1.50541e-06
-1.24782e-06
-1.03814e-06
-8.67409e-07
-7.28259e-07
-6.14631e-07
-5.21579e-07
-4.45079e-07
-3.81866e-07
-3.29303e-07
-2.85262e-07
-2.48035e-07
-2.16249e-07
-1.88804e-07
-1.64822e-07
-1.43596e-07
-1.24562e-07
-1.07266e-07
-9.134e-08
-7.64839e-08
-6.24445e-08
-4.90042e-08
-3.59837e-08
-2.31442e-08
-1.13867e-08
5.45258e-05
5.44661e-05
5.43139e-05
5.40694e-05
5.37282e-05
5.32762e-05
5.26936e-05
5.19566e-05
5.10368e-05
4.99003e-05
4.85078e-05
4.68138e-05
4.47677e-05
4.23141e-05
3.9395e-05
3.59518e-05
3.19296e-05
2.72822e-05
2.19792e-05
1.60143e-05
9.41461e-06
2.24986e-06
-5.35898e-06
-1.32349e-05
-2.1145e-05
-2.88089e-05
-3.59159e-05
-4.21514e-05
-4.72302e-05
-5.09313e-05
-5.31279e-05
-5.38043e-05
-5.30568e-05
-5.10754e-05
-4.81135e-05
-4.44516e-05
-4.0364e-05
-3.60942e-05
-3.18419e-05
-2.77574e-05
-2.3945e-05
-2.04681e-05
-1.73575e-05
-1.46187e-05
-1.22399e-05
-1.01972e-05
-8.46041e-06
-6.99598e-06
-5.7701e-06
-4.75023e-06
-3.90621e-06
-3.21083e-06
-2.64005e-06
-2.17296e-06
-1.79163e-06
-1.48087e-06
-1.22789e-06
-1.02202e-06
-8.54437e-07
-7.1786e-07
-6.06329e-07
-5.14976e-07
-4.39847e-07
-3.77736e-07
-3.26054e-07
-2.82716e-07
-2.46045e-07
-2.14699e-07
-1.876e-07
-1.63887e-07
-1.42871e-07
-1.23997e-07
-1.06823e-07
-9.09886e-08
-7.62005e-08
-6.22122e-08
-4.88125e-08
-3.58279e-08
-2.30263e-08
-1.13032e-08
5.45761e-05
5.45181e-05
5.43702e-05
5.41327e-05
5.38011e-05
5.33613e-05
5.27939e-05
5.20754e-05
5.11775e-05
5.00665e-05
4.87029e-05
4.7041e-05
4.50295e-05
4.26118e-05
3.97281e-05
3.63173e-05
3.23207e-05
2.76881e-05
2.23836e-05
1.63954e-05
9.74492e-06
2.49739e-06
-5.2286e-06
-1.32548e-05
-2.13426e-05
-2.92002e-05
-3.65004e-05
-4.29089e-05
-4.81203e-05
-5.18967e-05
-5.4102e-05
-5.4721e-05
-5.386e-05
-5.17267e-05
-4.8595e-05
-4.47644e-05
-4.05238e-05
-3.6126e-05
-3.1774e-05
-2.76182e-05
-2.37596e-05
-2.02576e-05
-1.71382e-05
-1.44029e-05
-1.20356e-05
-1.00096e-05
-8.292e-06
-6.84765e-06
-5.64145e-06
-4.64008e-06
-3.81294e-06
-3.13259e-06
-2.57495e-06
-2.11919e-06
-1.74751e-06
-1.44487e-06
-1.19867e-06
-9.98425e-07
-8.3547e-07
-7.02684e-07
-5.94242e-07
-5.05395e-07
-4.32291e-07
-3.71809e-07
-3.21433e-07
-2.79137e-07
-2.43295e-07
-2.12606e-07
-1.86025e-07
-1.62718e-07
-1.42017e-07
-1.23387e-07
-1.06397e-07
-9.07019e-08
-7.6016e-08
-6.21026e-08
-4.87588e-08
-3.58188e-08
-2.30551e-08
-1.13542e-08
5.46411e-05
5.45853e-05
5.44432e-05
5.42146e-05
5.38954e-05
5.34715e-05
5.2924e-05
5.22295e-05
5.13601e-05
5.02823e-05
4.89564e-05
4.73364e-05
4.53702e-05
4.29997e-05
4.01627e-05
3.67947e-05
3.28327e-05
2.82204e-05
2.29153e-05
1.6898e-05
1.01823e-05
2.82743e-06
-5.05158e-06
-1.32752e-05
-2.15973e-05
-2.97112e-05
-3.72682e-05
-4.39071e-05
-4.92951e-05
-5.31719e-05
-5.53884e-05
-5.59301e-05
-5.49172e-05
-5.25811e-05
-4.92235e-05
-4.51695e-05
-4.07274e-05
-3.61618e-05
-3.168e-05
-2.74316e-05
-2.35137e-05
-1.998e-05
-1.68503e-05
-1.41202e-05
-1.17687e-05
-9.76482e-06
-8.07264e-06
-6.65467e-06
-5.47426e-06
-4.49707e-06
-3.69192e-06
-3.03114e-06
-2.49059e-06
-2.04954e-06
-1.69036e-06
-1.39825e-06
-1.16082e-06
-9.67848e-07
-8.10872e-07
-6.82977e-07
-5.78514e-07
-4.92891e-07
-4.22386e-07
-3.63991e-07
-3.15283e-07
-2.74316e-07
-2.39529e-07
-2.09672e-07
-1.83746e-07
-1.60951e-07
-1.40648e-07
-1.22325e-07
-1.05571e-07
-9.0054e-08
-7.55031e-08
-6.16923e-08
-4.84293e-08
-3.55584e-08
-2.28632e-08
-1.12395e-08
5.47192e-05
5.46662e-05
5.45309e-05
5.43133e-05
5.40089e-05
5.36042e-05
5.30806e-05
5.24152e-05
5.15803e-05
5.05427e-05
4.92627e-05
4.76938e-05
4.57829e-05
4.34702e-05
4.06907e-05
3.73758e-05
3.34571e-05
2.88713e-05
2.35675e-05
1.75168e-05
1.07237e-05
3.23939e-06
-4.82571e-06
-1.32911e-05
-2.19017e-05
-3.03329e-05
-3.82088e-05
-4.51349e-05
-5.07436e-05
-5.47458e-05
-5.69758e-05
-5.74198e-05
-5.62161e-05
-5.36264e-05
-4.99876e-05
-4.56572e-05
-4.09674e-05
-3.61965e-05
-3.15573e-05
-2.71975e-05
-2.32091e-05
-1.96384e-05
-1.64977e-05
-1.37751e-05
-1.14437e-05
-9.46747e-06
-7.80666e-06
-6.42105e-06
-5.27213e-06
-4.32438e-06
-3.54595e-06
-2.9089e-06
-2.38904e-06
-1.96578e-06
-1.62171e-06
-1.34231e-06
-1.11549e-06
-9.31286e-07
-7.81529e-07
-6.5954e-07
-5.59886e-07
-4.7816e-07
-4.108e-07
-3.54933e-07
-3.08249e-07
-2.68895e-07
-2.35389e-07
-2.06546e-07
-1.81417e-07
-1.59244e-07
-1.39423e-07
-1.2147e-07
-1.04995e-07
-8.96863e-08
-7.52874e-08
-6.15853e-08
-4.83996e-08
-3.5585e-08
-2.29318e-08
-1.13314e-08
5.48085e-05
5.47586e-05
5.46312e-05
5.44261e-05
5.41387e-05
5.37562e-05
5.32601e-05
5.26281e-05
5.18331e-05
5.0842e-05
4.9615e-05
4.81053e-05
4.62588e-05
4.40136e-05
4.13017e-05
3.80498e-05
3.41832e-05
2.96304e-05
2.43308e-05
1.82443e-05
1.13641e-05
3.73135e-06
-4.54935e-06
-1.32971e-05
-2.2247e-05
-3.10534e-05
-3.93084e-05
-4.65772e-05
-5.245e-05
-5.6602e-05
-5.88473e-05
-5.91732e-05
-5.77398e-05
-5.48463e-05
-5.08727e-05
-4.62153e-05
-4.12345e-05
-3.62247e-05
-3.14035e-05
-2.69164e-05
-2.28485e-05
-1.92372e-05
-1.60856e-05
-1.33736e-05
-1.10667e-05
-9.12344e-06
-7.4996e-06
-6.15185e-06
-5.03957e-06
-4.12595e-06
-3.37842e-06
-2.76872e-06
-2.27268e-06
-1.86985e-06
-1.54312e-06
-1.27827e-06
-1.06357e-06
-8.89383e-07
-7.47855e-07
-6.32587e-07
-5.38395e-07
-4.61089e-07
-3.97288e-07
-3.44277e-07
-2.99874e-07
-2.62336e-07
-2.3027e-07
-2.02564e-07
-1.7833e-07
-1.5686e-07
-1.37586e-07
-1.20057e-07
-1.0391e-07
-8.88542e-08
-7.46494e-08
-6.10974e-08
-4.80301e-08
-3.5314e-08
-2.27506e-08
-1.12405e-08
5.49067e-05
5.48602e-05
5.47415e-05
5.45502e-05
5.42818e-05
5.39237e-05
5.34581e-05
5.28633e-05
5.21125e-05
5.1173e-05
5.00052e-05
4.85618e-05
4.67874e-05
4.46184e-05
4.19831e-05
3.88033e-05
3.49974e-05
3.04846e-05
2.51932e-05
1.90703e-05
1.2096e-05
4.29979e-06
-4.22163e-06
-1.32876e-05
-2.2623e-05
-3.18586e-05
-4.05496e-05
-4.82143e-05
-5.43931e-05
-5.87187e-05
-6.0981e-05
-6.1168e-05
-5.94665e-05
-5.62206e-05
-5.18612e-05
-4.68298e-05
-4.15192e-05
-3.62408e-05
-3.1217e-05
-2.659e-05
-2.24359e-05
-1.87821e-05
-1.56211e-05
-1.29229e-05
-1.06452e-05
-8.73987e-06
-7.1581e-06
-5.85309e-06
-4.78198e-06
-3.90653e-06
-3.19346e-06
-2.6142e-06
-2.1446e-06
-1.76443e-06
-1.4569e-06
-1.20816e-06
-1.00687e-06
-8.43763e-07
-7.11335e-07
-6.035e-07
-5.15351e-07
-4.42934e-07
-3.83072e-07
-3.3322e-07
-2.91341e-07
-2.5581e-07
-2.25332e-07
-1.98877e-07
-1.75622e-07
-1.54911e-07
-1.36222e-07
-1.19136e-07
-1.0332e-07
-8.85066e-08
-7.44749e-08
-6.10417e-08
-4.8052e-08
-3.53841e-08
-2.28474e-08
-1.13444e-08
5.50113e-05
5.49685e-05
5.48591e-05
5.46826e-05
5.44345e-05
5.41025e-05
5.36697e-05
5.31148e-05
5.24117e-05
5.1528e-05
5.04242e-05
4.90527e-05
4.7357e-05
4.52714e-05
4.27205e-05
3.9621e-05
3.58836e-05
3.14177e-05
2.61394e-05
1.99816e-05
1.29095e-05
4.93871e-06
-3.84337e-06
-1.32577e-05
-2.30186e-05
-3.27316e-05
-4.19108e-05
-5.00211e-05
-5.65455e-05
-6.10672e-05
-6.33474e-05
-6.33754e-05
-6.13691e-05
-5.77249e-05
-5.29325e-05
-4.74851e-05
-4.1811e-05
-3.62396e-05
-3.09974e-05
-2.62212e-05
-2.19773e-05
-1.82809e-05
-1.51126e-05
-1.2432e-05
-1.01878e-05
-8.32503e-06
-6.78973e-06
-5.53156e-06
-4.50526e-06
-3.6712e-06
-2.99534e-06
-2.44885e-06
-2.00765e-06
-1.65176e-06
-1.36475e-06
-1.1332e-06
-9.46191e-07
-7.94868e-07
-6.72098e-07
-5.72139e-07
-4.90381e-07
-4.23128e-07
-3.67422e-07
-3.20899e-07
-2.81678e-07
-2.48262e-07
-2.19462e-07
-1.94334e-07
-1.72125e-07
-1.52236e-07
-1.34189e-07
-1.17605e-07
-1.02181e-07
-8.76729e-08
-7.38798e-08
-6.06337e-08
-4.77922e-08
-3.52438e-08
-2.28048e-08
-1.13745e-08
5.51196e-05
5.50806e-05
5.4981e-05
5.48199e-05
5.45929e-05
5.42883e-05
5.38897e-05
5.33766e-05
5.27235e-05
5.18984e-05
5.0862e-05
4.95665e-05
4.79543e-05
4.59575e-05
4.34973e-05
4.04848e-05
3.68229e-05
3.24108e-05
2.71511e-05
2.09615e-05
1.37908e-05
5.63912e-06
-3.41762e-06
-1.32033e-05
-2.34223e-05
-3.36535e-05
-4.33663e-05
-5.19665e-05
-5.88722e-05
-6.36103e-05
-6.59094e-05
-6.57594e-05
-6.34142e-05
-5.933e-05
-5.40634e-05
-4.81646e-05
-4.21e-05
-3.62174e-05
-3.0746e-05
-2.58155e-05
-2.14807e-05
-1.77432e-05
-1.45708e-05
-1.19116e-05
-9.70488e-06
-7.88856e-06
-6.40331e-06
-5.19515e-06
-4.21642e-06
-3.4261e-06
-2.78942e-06
-2.27736e-06
-1.86593e-06
-1.53544e-06
-1.26989e-06
-1.05629e-06
-8.84173e-07
-7.45132e-07
-6.32425e-07
-5.40669e-07
-4.65564e-07
-4.03681e-07
-3.5229e-07
-3.09217e-07
-2.72741e-07
-2.41498e-07
-2.14409e-07
-1.9062e-07
-1.69451e-07
-1.50361e-07
-1.3292e-07
-1.16788e-07
-1.01695e-07
-8.74228e-08
-7.3791e-08
-6.06474e-08
-4.78626e-08
-3.53366e-08
-2.28955e-08
-1.14514e-08
5.52289e-05
5.51937e-05
5.51039e-05
5.49585e-05
5.4753e-05
5.44763e-05
5.41126e-05
5.36422e-05
5.30401e-05
5.2275e-05
5.13078e-05
5.00906e-05
4.85648e-05
4.66604e-05
4.42952e-05
4.13747e-05
3.7794e-05
3.34414e-05
2.82062e-05
2.19896e-05
1.47226e-05
6.38836e-06
-2.95046e-06
-1.31224e-05
-2.38227e-05
-3.46032e-05
-4.48859e-05
-5.40126e-05
-6.133e-05
-6.63021e-05
-6.86201e-05
-6.82755e-05
-6.55619e-05
-6.10027e-05
-5.52284e-05
-4.8851e-05
-4.23771e-05
-3.61721e-05
-3.04661e-05
-2.53804e-05
-2.09562e-05
-1.71807e-05
-1.40078e-05
-1.13736e-05
-9.20777e-06
-7.44079e-06
-6.00803e-06
-4.85184e-06
-3.92225e-06
-3.17687e-06
-2.5803e-06
-2.10336e-06
-1.7222e-06
-1.41748e-06
-1.17364e-06
-9.78167e-07
-8.21067e-07
-6.94382e-07
-5.91785e-07
-5.08257e-07
-4.3982e-07
-3.83317e-07
-3.36248e-07
-2.96635e-07
-2.62919e-07
-2.33871e-07
-2.08524e-07
-1.86112e-07
-1.6603e-07
-1.47794e-07
-1.31024e-07
-1.15418e-07
-1.00738e-07
-8.67915e-08
-7.34168e-08
-6.04766e-08
-4.7852e-08
-3.54504e-08
-2.30967e-08
-1.16796e-08
5.53361e-05
5.53049e-05
5.52249e-05
5.5095e-05
5.49108e-05
5.46617e-05
5.43327e-05
5.39046e-05
5.33534e-05
5.26483e-05
5.17505e-05
5.06119e-05
4.91733e-05
4.73626e-05
4.50944e-05
4.22688e-05
3.8773e-05
3.44848e-05
2.92794e-05
2.30415e-05
1.56834e-05
7.16975e-06
-2.4515e-06
-1.30153e-05
-2.42093e-05
-3.55582e-05
-4.64355e-05
-5.61149e-05
-6.38667e-05
-6.90861e-05
-7.14233e-05
-7.08705e-05
-6.77655e-05
-6.27053e-05
-5.64e-05
-4.95275e-05
-4.26348e-05
-3.61039e-05
-3.01642e-05
-2.49263e-05
-2.04168e-05
-1.66075e-05
-1.34379e-05
-1.08319e-05
-8.7094e-06
-6.99356e-06
-5.61452e-06
-4.51109e-06
-3.63109e-06
-2.93086e-06
-2.37445e-06
-1.93257e-06
-1.58156e-06
-1.30247e-06
-1.08018e-06
-9.0268e-07
-7.60449e-07
-6.45983e-07
-5.5337e-07
-4.77955e-07
-4.16078e-07
-3.64853e-07
-3.22008e-07
-2.85757e-07
-2.54702e-07
-2.27748e-07
-2.04039e-07
-1.82897e-07
-1.63789e-07
-1.46291e-07
-1.3007e-07
-1.14866e-07
-1.00472e-07
-8.67212e-08
-7.34717e-08
-6.06007e-08
-4.80005e-08
-3.55883e-08
-2.31998e-08
-1.17447e-08
5.54387e-05
5.54111e-05
5.53405e-05
5.52256e-05
5.50621e-05
5.48397e-05
5.45442e-05
5.41573e-05
5.36555e-05
5.30087e-05
5.21786e-05
5.1117e-05
4.9764e-05
4.80459e-05
4.5874e-05
4.31436e-05
3.97343e-05
3.55133e-05
3.03424e-05
2.40893e-05
1.66475e-05
7.96235e-06
-1.93431e-06
-1.28854e-05
-2.45728e-05
-3.64951e-05
-4.7977e-05
-5.82226e-05
-6.64216e-05
-7.1896e-05
-7.4252e-05
-7.34824e-05
-6.99722e-05
-6.43965e-05
-5.75499e-05
-5.01778e-05
-4.28677e-05
-3.6016e-05
-2.98492e-05
-2.4466e-05
-1.98774e-05
-1.60392e-05
-1.28765e-05
-1.03009e-05
-8.22284e-06
-6.55839e-06
-5.23268e-06
-4.18121e-06
-3.34973e-06
-2.69348e-06
-2.17602e-06
-1.76803e-06
-1.44609e-06
-1.19163e-06
-9.90011e-07
-8.29703e-07
-7.01673e-07
-5.9886e-07
-5.15756e-07
-4.48065e-07
-3.92432e-07
-3.46235e-07
-3.07421e-07
-2.7439e-07
-2.45897e-07
-2.20978e-07
-1.98878e-07
-1.79007e-07
-1.60898e-07
-1.44183e-07
-1.28576e-07
-1.13852e-07
-9.98367e-08
-8.63846e-08
-7.33717e-08
-6.06868e-08
-4.82299e-08
-3.59223e-08
-2.35916e-08
-1.21123e-08
5.55337e-05
5.55097e-05
5.54479e-05
5.53471e-05
5.52029e-05
5.50056e-05
5.47417e-05
5.43936e-05
5.39384e-05
5.33468e-05
5.25808e-05
5.15924e-05
5.0321e-05
4.86917e-05
4.66128e-05
4.3975e-05
4.06508e-05
3.64978e-05
3.13643e-05
2.51022e-05
1.75858e-05
8.74126e-06
-1.41646e-06
-1.27397e-05
-2.49061e-05
-3.73906e-05
-4.94701e-05
-6.0279e-05
-6.89253e-05
-7.46557e-05
-7.703e-05
-7.60413e-05
-7.21233e-05
-6.60324e-05
-5.86495e-05
-5.07878e-05
-4.30732e-05
-3.59145e-05
-2.95334e-05
-2.40154e-05
-1.93555e-05
-1.54937e-05
-1.23408e-05
-9.79672e-06
-7.76283e-06
-6.14851e-06
-4.87429e-06
-3.87261e-06
-3.08739e-06
-2.47289e-06
-1.99228e-06
-1.61626e-06
-1.32168e-06
-1.09036e-06
-9.0812e-07
-7.63904e-07
-6.49137e-07
-5.57185e-07
-4.82922e-07
-4.22389e-07
-3.72522e-07
-3.30942e-07
-2.95805e-07
-2.65684e-07
-2.39479e-07
-2.16346e-07
-1.95631e-07
-1.7682e-07
-1.59513e-07
-1.43395e-07
-1.28222e-07
-1.13806e-07
-1.00002e-07
-8.6688e-08
-7.37548e-08
-6.11027e-08
-4.86395e-08
-3.6293e-08
-2.38962e-08
-1.23319e-08
5.56188e-05
5.55979e-05
5.55442e-05
5.54562e-05
5.53295e-05
5.5155e-05
5.49199e-05
5.4607e-05
5.41945e-05
5.36533e-05
5.29461e-05
5.2025e-05
5.0829e-05
4.92819e-05
4.72897e-05
4.47387e-05
4.14954e-05
3.74081e-05
3.23132e-05
2.60471e-05
1.84664e-05
9.47831e-06
-9.1908e-07
-1.25884e-05
-2.52049e-05
-3.82222e-05
-5.08727e-05
-6.22236e-05
-7.13026e-05
-7.72814e-05
-7.96731e-05
-7.84705e-05
-7.41563e-05
-6.75677e-05
-5.96711e-05
-5.13451e-05
-4.32513e-05
-3.58082e-05
-2.92312e-05
-2.35919e-05
-1.88696e-05
-1.49891e-05
-1.18477e-05
-9.33458e-06
-7.3426e-06
-5.77516e-06
-4.54862e-06
-3.59276e-06
-2.84987e-06
-2.27341e-06
-1.82625e-06
-1.47916e-06
-1.20926e-06
-9.98765e-07
-8.33916e-07
-7.04109e-07
-6.01195e-07
-5.18931e-07
-4.52543e-07
-3.98382e-07
-3.53646e-07
-3.16178e-07
-2.84321e-07
-2.56804e-07
-2.32659e-07
-2.11148e-07
-1.91705e-07
-1.73888e-07
-1.57354e-07
-1.41832e-07
-1.27119e-07
-1.13059e-07
-9.95307e-08
-8.64311e-08
-7.36646e-08
-6.11392e-08
-4.87676e-08
-3.64796e-08
-2.41048e-08
-1.2515e-08
5.56915e-05
5.56734e-05
5.56267e-05
5.55498e-05
5.54384e-05
5.52839e-05
5.50739e-05
5.47919e-05
5.44167e-05
5.39198e-05
5.32644e-05
5.24026e-05
5.12733e-05
4.97992e-05
4.78842e-05
4.54113e-05
4.22412e-05
3.82145e-05
3.31567e-05
2.68904e-05
1.92561e-05
1.01433e-05
-4.65916e-07
-1.24447e-05
-2.54673e-05
-3.89694e-05
-5.21431e-05
-6.39939e-05
-7.34743e-05
-7.96843e-05
-8.20921e-05
-8.06898e-05
-7.60066e-05
-6.89572e-05
-6.05887e-05
-5.18404e-05
-4.34052e-05
-3.57087e-05
-2.89591e-05
-2.32145e-05
-1.84394e-05
-1.45447e-05
-1.14154e-05
-8.93099e-06
-6.977e-06
-5.45153e-06
-4.26736e-06
-3.35197e-06
-2.64634e-06
-2.10323e-06
-1.68532e-06
-1.36346e-06
-1.11503e-06
-9.226e-07
-7.72812e-07
-6.55454e-07
-5.62752e-07
-4.8881e-07
-4.29167e-07
-3.80439e-07
-3.40055e-07
-3.06053e-07
-2.76936e-07
-2.51569e-07
-2.29098e-07
-2.08881e-07
-1.90426e-07
-1.73356e-07
-1.57373e-07
-1.42252e-07
-1.2782e-07
-1.13952e-07
-1.00547e-07
-8.75199e-08
-7.47861e-08
-6.22601e-08
-4.98585e-08
-3.75122e-08
-2.50375e-08
-1.32579e-08
5.57499e-05
5.5734e-05
5.56931e-05
5.56254e-05
5.55267e-05
5.53887e-05
5.51995e-05
5.49432e-05
5.45989e-05
5.41388e-05
5.35265e-05
5.27142e-05
5.16408e-05
5.0228e-05
4.83781e-05
4.59712e-05
4.28636e-05
3.88891e-05
3.38642e-05
2.75998e-05
1.99222e-05
1.07058e-05
-8.17816e-08
-1.23235e-05
-2.56941e-05
-3.96142e-05
-5.32421e-05
-6.55293e-05
-7.53617e-05
-8.17753e-05
-8.41973e-05
-8.26189e-05
-7.7611e-05
-7.01582e-05
-6.13794e-05
-5.22667e-05
-4.35397e-05
-3.56286e-05
-2.8734e-05
-2.29018e-05
-1.80835e-05
-1.41777e-05
-1.10593e-05
-8.59937e-06
-6.6773e-06
-5.18683e-06
-4.03779e-06
-3.15582e-06
-2.48081e-06
-1.96502e-06
-1.57098e-06
-1.26963e-06
-1.03859e-06
-8.60739e-07
-7.23057e-07
-6.15661e-07
-5.31095e-07
-4.63754e-07
-4.09432e-07
-3.6497e-07
-3.27986e-07
-2.96674e-07
-2.6967e-07
-2.4595e-07
-2.24754e-07
-2.05514e-07
-1.87804e-07
-1.71293e-07
-1.55726e-07
-1.40907e-07
-1.26694e-07
-1.12981e-07
-9.96861e-08
-8.67354e-08
-7.40525e-08
-6.15564e-08
-4.91667e-08
-3.68191e-08
-2.43501e-08
-1.26611e-08
5.57923e-05
5.57781e-05
5.57416e-05
5.56809e-05
5.55919e-05
5.54665e-05
5.52931e-05
5.50564e-05
5.47358e-05
5.4304e-05
5.37248e-05
5.29506e-05
5.19202e-05
5.05547e-05
4.87553e-05
4.63997e-05
4.33408e-05
3.94072e-05
3.44083e-05
2.81458e-05
2.04349e-05
1.11375e-05
2.09491e-07
-1.22403e-05
-2.58876e-05
-4.0142e-05
-5.41346e-05
-6.67739e-05
-7.68914e-05
-8.34706e-05
-8.59042e-05
-8.41826e-05
-7.89112e-05
-7.11322e-05
-6.20234e-05
-5.26198e-05
-4.36614e-05
-3.5581e-05
-2.85725e-05
-2.26717e-05
-1.78196e-05
-1.39052e-05
-1.0795e-05
-8.35369e-06
-6.45593e-06
-4.99206e-06
-3.86968e-06
-3.013e-06
-2.36112e-06
-1.8659e-06
-1.48979e-06
-1.20382e-06
-9.85789e-07
-8.18818e-07
-6.90138e-07
-5.90127e-07
-5.11571e-07
-4.49087e-07
-3.98667e-07
-3.57319e-07
-3.22802e-07
-2.9343e-07
-2.67936e-07
-2.45378e-07
-2.25066e-07
-2.06491e-07
-1.89272e-07
-1.73117e-07
-1.57799e-07
-1.43148e-07
-1.29039e-07
-1.15385e-07
-1.02116e-07
-8.91676e-08
-7.64682e-08
-6.39399e-08
-5.15021e-08
-3.90835e-08
-2.64719e-08
-1.44051e-08
5.58173e-05
5.58043e-05
5.57707e-05
5.57146e-05
5.5632e-05
5.55149e-05
5.5352e-05
5.51283e-05
5.48234e-05
5.44104e-05
5.38532e-05
5.31044e-05
5.21027e-05
5.07688e-05
4.90031e-05
4.66818e-05
4.36553e-05
3.97488e-05
3.47667e-05
2.85044e-05
2.07691e-05
1.14143e-05
3.87384e-07
-1.22089e-05
-2.6051e-05
-4.05412e-05
-5.47918e-05
-6.76808e-05
-7.80011e-05
-8.4698e-05
-8.714e-05
-8.53163e-05
-7.98575e-05
-7.18471e-05
-6.25053e-05
-5.2897e-05
-4.3776e-05
-3.55769e-05
-2.84882e-05
-2.25385e-05
-1.76615e-05
-1.37394e-05
-1.06331e-05
-8.20292e-06
-6.32014e-06
-4.87286e-06
-3.76717e-06
-2.92633e-06
-2.28888e-06
-1.80645e-06
-1.44141e-06
-1.16485e-06
-9.54692e-07
-7.94222e-07
-6.7084e-07
-5.75096e-07
-4.99937e-07
-4.40126e-07
-3.91784e-07
-3.52033e-07
-3.18722e-07
-2.9024e-07
-2.65383e-07
-2.43263e-07
-2.23233e-07
-2.04822e-07
-1.87678e-07
-1.71534e-07
-1.56181e-07
-1.41463e-07
-1.27268e-07
-1.13518e-07
-1.00151e-07
-8.71072e-08
-7.43174e-08
-6.17052e-08
-4.91922e-08
-3.67179e-08
-2.41341e-08
-1.24089e-08
5.58242e-05
5.58117e-05
5.57794e-05
5.57254e-05
5.56457e-05
5.55324e-05
5.53743e-05
5.51566e-05
5.4859e-05
5.44547e-05
5.39076e-05
5.31707e-05
5.21822e-05
5.0863e-05
4.91127e-05
4.6807e-05
4.37949e-05
3.98998e-05
3.49236e-05
2.86583e-05
2.09071e-05
1.15189e-05
4.3699e-07
-1.22393e-05
-2.61868e-05
-4.08038e-05
-5.51928e-05
-6.82154e-05
-7.8644e-05
-8.54039e-05
-8.78502e-05
-8.59719e-05
-8.04131e-05
-7.22795e-05
-6.28139e-05
-5.30966e-05
-4.38885e-05
-3.56248e-05
-2.84913e-05
-2.25131e-05
-1.76198e-05
-1.36903e-05
-1.05828e-05
-8.15522e-06
-6.27728e-06
-4.83589e-06
-3.73637e-06
-2.90148e-06
-2.26949e-06
-1.79188e-06
-1.43099e-06
-1.1579e-06
-9.50593e-07
-7.92421e-07
-6.70858e-07
-5.76527e-07
-5.02444e-07
-4.43437e-07
-3.95683e-07
-3.56347e-07
-3.23318e-07
-2.95013e-07
-2.7025e-07
-2.48162e-07
-2.28117e-07
-2.09659e-07
-1.92446e-07
-1.76218e-07
-1.60774e-07
-1.45962e-07
-1.31674e-07
-1.17835e-07
-1.04386e-07
-9.12661e-08
-7.84084e-08
-6.57345e-08
-5.31613e-08
-4.06101e-08
-2.78351e-08
-1.54834e-08
5.58125e-05
5.57999e-05
5.57673e-05
5.57128e-05
5.56324e-05
5.55183e-05
5.53592e-05
5.51402e-05
5.48412e-05
5.44351e-05
5.38861e-05
5.31468e-05
5.21557e-05
5.08335e-05
4.90798e-05
4.67701e-05
4.37535e-05
3.98532e-05
3.4871e-05
2.85989e-05
2.08399e-05
1.14428e-05
3.50884e-07
-1.23364e-05
-2.62957e-05
-4.09248e-05
-5.53253e-05
-6.83581e-05
-7.87941e-05
-8.55579e-05
-8.80042e-05
-8.61221e-05
-8.05571e-05
-7.2416e-05
-6.29423e-05
-5.32169e-05
-4.40005e-05
-3.57283e-05
-2.85864e-05
-2.25999e-05
-1.76986e-05
-1.37616e-05
-1.0647e-05
-8.21289e-06
-6.32889e-06
-4.88194e-06
-3.77734e-06
-2.93783e-06
-2.30164e-06
-1.82023e-06
-1.45589e-06
-1.17969e-06
-9.6957e-07
-8.08858e-07
-6.85003e-07
-5.88604e-07
-5.12659e-07
-4.51975e-07
-4.02712e-07
-3.62021e-07
-3.27774e-07
-2.98373e-07
-2.72624e-07
-2.49646e-07
-2.28799e-07
-2.09616e-07
-1.91751e-07
-1.74936e-07
-1.58966e-07
-1.43684e-07
-1.28978e-07
-1.1477e-07
-1.00997e-07
-8.75978e-08
-7.45022e-08
-6.16301e-08
-4.88994e-08
-3.62487e-08
-2.35465e-08
-1.18451e-08
5.57824e-05
5.5769e-05
5.57344e-05
5.56769e-05
5.55923e-05
5.54726e-05
5.53067e-05
5.50792e-05
5.477e-05
5.43518e-05
5.37887e-05
5.30331e-05
5.20234e-05
5.06805e-05
4.89045e-05
4.65713e-05
4.35313e-05
3.96092e-05
3.46094e-05
2.83266e-05
2.0568e-05
1.11867e-05
1.30107e-07
-1.24988e-05
-2.6376e-05
-4.09019e-05
-5.51868e-05
-6.81057e-05
-7.8448e-05
-8.51566e-05
-8.75984e-05
-8.57639e-05
-8.02868e-05
-7.22542e-05
-6.28887e-05
-5.32561e-05
-4.41104e-05
-3.58861e-05
-2.87723e-05
-2.27981e-05
-1.78976e-05
-1.39531e-05
-1.08259e-05
-8.37632e-06
-6.47569e-06
-5.0121e-06
-3.89157e-06
-3.0373e-06
-2.38774e-06
-1.89441e-06
-1.5196e-06
-1.23429e-06
-1.01631e-06
-8.48867e-07
-7.19281e-07
-6.18027e-07
-5.37986e-07
-4.7386e-07
-4.21713e-07
-3.78614e-07
-3.4236e-07
-3.11291e-07
-2.84157e-07
-2.60031e-07
-2.38234e-07
-2.18264e-07
-1.99747e-07
-1.82394e-07
-1.65978e-07
-1.5033e-07
-1.35323e-07
-1.2087e-07
-1.069e-07
-9.33441e-08
-8.01281e-08
-6.71661e-08
-5.43663e-08
-4.16373e-08
-2.87032e-08
-1.61459e-08
5.57343e-05
5.57195e-05
5.56815e-05
5.56183e-05
5.5526e-05
5.53964e-05
5.52179e-05
5.4975e-05
5.46471e-05
5.42068e-05
5.36177e-05
5.28322e-05
5.17886e-05
5.04082e-05
4.85916e-05
4.62164e-05
4.3135e-05
3.91757e-05
3.41474e-05
2.78512e-05
2.01018e-05
1.07609e-05
-2.15858e-07
-1.27192e-05
-2.64235e-05
-4.07361e-05
-5.47844e-05
-6.74721e-05
-7.76255e-05
-8.42234e-05
-8.66571e-05
-8.49183e-05
-7.96177e-05
-7.18028e-05
-6.26555e-05
-5.32123e-05
-4.42132e-05
-3.60915e-05
-2.90417e-05
-2.31006e-05
-1.82097e-05
-1.42584e-05
-1.11136e-05
-8.64023e-06
-6.71286e-06
-5.22185e-06
-4.07475e-06
-3.19562e-06
-2.52342e-06
-2.00987e-06
-1.61725e-06
-1.31642e-06
-1.08505e-06
-9.0613e-07
-7.66749e-07
-6.57172e-07
-5.70079e-07
-4.9999e-07
-4.42804e-07
-3.95448e-07
-3.55597e-07
-3.21486e-07
-2.91777e-07
-2.65467e-07
-2.41811e-07
-2.20256e-07
-2.00382e-07
-1.81864e-07
-1.64449e-07
-1.47941e-07
-1.32196e-07
-1.17109e-07
-1.02596e-07
-8.85816e-08
-7.49815e-08
-6.1705e-08
-4.86602e-08
-3.57774e-08
-2.29329e-08
-1.1249e-08
5.56692e-05
5.56525e-05
5.56094e-05
5.55383e-05
5.54351e-05
5.52912e-05
5.50948e-05
5.48299e-05
5.44754e-05
5.40035e-05
5.33774e-05
5.25494e-05
5.14577e-05
5.0024e-05
4.81504e-05
4.57162e-05
4.25775e-05
3.85673e-05
3.35017e-05
2.71908e-05
1.94603e-05
1.01841e-05
-6.70157e-07
-1.29848e-05
-2.64328e-05
-4.04317e-05
-5.41346e-05
-6.64868e-05
-7.63672e-05
-8.28064e-05
-8.52289e-05
-8.36284e-05
-7.85819e-05
-7.10811e-05
-6.22503e-05
-5.30836e-05
-4.43012e-05
-3.63337e-05
-2.93825e-05
-2.3495e-05
-1.86235e-05
-1.46671e-05
-1.15013e-05
-8.9972e-06
-7.0344e-06
-5.5066e-06
-4.32356e-06
-3.41071e-06
-2.70779e-06
-2.16681e-06
-1.75013e-06
-1.42845e-06
-1.1792e-06
-9.85078e-07
-8.32867e-07
-7.12529e-07
-6.16458e-07
-5.38911e-07
-4.75556e-07
-4.23113e-07
-3.79082e-07
-3.41547e-07
-3.09044e-07
-2.80459e-07
-2.54956e-07
-2.31902e-07
-2.10816e-07
-1.91321e-07
-1.73121e-07
-1.55987e-07
-1.39745e-07
-1.24266e-07
-1.09448e-07
-9.52007e-08
-8.14288e-08
-6.8032e-08
-5.49042e-08
-4.19386e-08
-2.88409e-08
-1.6183e-08
5.55887e-05
5.55694e-05
5.552e-05
5.54387e-05
5.53215e-05
5.51596e-05
5.49404e-05
5.46475e-05
5.42592e-05
5.37472e-05
5.30743e-05
5.21923e-05
5.10398e-05
4.95392e-05
4.75939e-05
4.50862e-05
4.18766e-05
3.78047e-05
3.26953e-05
2.63704e-05
1.86695e-05
9.48185e-06
-1.21052e-06
-1.32798e-05
-2.63981e-05
-3.99969e-05
-5.32624e-05
-6.51925e-05
-7.47315e-05
-8.0973e-05
-8.33823e-05
-8.19542e-05
-7.7225e-05
-7.01176e-05
-6.16852e-05
-5.28699e-05
-4.43657e-05
-3.65989e-05
-2.97787e-05
-2.39648e-05
-1.9123e-05
-1.51647e-05
-1.19757e-05
-9.43558e-06
-7.43012e-06
-5.85737e-06
-4.63004e-06
-3.67539e-06
-2.93419e-06
-2.35893e-06
-1.91205e-06
-1.56412e-06
-1.29229e-06
-1.07888e-06
-9.10313e-07
-7.76179e-07
-6.68517e-07
-5.81258e-07
-5.09782e-07
-4.50555e-07
-4.00862e-07
-3.58601e-07
-3.22151e-07
-2.90266e-07
-2.61996e-07
-2.36617e-07
-2.13571e-07
-1.92421e-07
-1.72821e-07
-1.54501e-07
-1.37252e-07
-1.20918e-07
-1.05374e-07
-9.05114e-08
-7.62226e-08
-6.2398e-08
-4.8929e-08
-3.57311e-08
-2.26735e-08
-1.09134e-08
5.54944e-05
5.54721e-05
5.54151e-05
5.53218e-05
5.5188e-05
5.50046e-05
5.47583e-05
5.44322e-05
5.4004e-05
5.34445e-05
5.27161e-05
5.17705e-05
5.05465e-05
4.89673e-05
4.69384e-05
4.43456e-05
4.10547e-05
3.69131e-05
3.17564e-05
2.54203e-05
1.77605e-05
8.68374e-06
-1.81159e-06
-1.35869e-05
-2.63148e-05
-3.94441e-05
-5.22003e-05
-6.36422e-05
-7.27886e-05
-7.8804e-05
-8.11987e-05
-7.99681e-05
-7.56024e-05
-6.89477e-05
-6.09773e-05
-5.25732e-05
-4.43984e-05
-3.68724e-05
-3.02122e-05
-2.44911e-05
-1.96898e-05
-1.5734e-05
-1.25216e-05
-9.94211e-06
-7.88875e-06
-6.26487e-06
-4.98673e-06
-3.9839e-06
-3.19844e-06
-2.58349e-06
-2.10164e-06
-1.72334e-06
-1.42543e-06
-1.18985e-06
-1.00258e-06
-8.52762e-07
-7.32034e-07
-6.33942e-07
-5.53522e-07
-4.86939e-07
-4.31217e-07
-3.84034e-07
-3.43578e-07
-3.08444e-07
-2.77545e-07
-2.50046e-07
-2.25294e-07
-2.02779e-07
-1.82093e-07
-1.62915e-07
-1.44994e-07
-1.28138e-07
-1.12194e-07
-9.70286e-08
-8.25184e-08
-6.8539e-08
-5.49649e-08
-4.16728e-08
-2.83643e-08
-1.56635e-08
5.53885e-05
5.53629e-05
5.52973e-05
5.51903e-05
5.50378e-05
5.483e-05
5.45531e-05
5.41895e-05
5.3716e-05
5.3103e-05
5.23122e-05
5.12953e-05
4.99912e-05
4.83245e-05
4.62029e-05
4.35165e-05
4.0137e-05
3.59211e-05
3.07164e-05
2.43736e-05
1.67667e-05
7.82125e-06
-2.44733e-06
-1.38899e-05
-2.61807e-05
-3.87895e-05
-5.09859e-05
-6.1895e-05
-7.06156e-05
-7.63869e-05
-7.87659e-05
-7.77483e-05
-7.37754e-05
-6.76125e-05
-6.01479e-05
-5.21985e-05
-4.43925e-05
-3.71401e-05
-3.06647e-05
-2.50538e-05
-2.03038e-05
-1.63558e-05
-1.31215e-05
-1.05012e-05
-8.39667e-06
-6.71723e-06
-5.38334e-06
-4.32726e-06
-3.49262e-06
-2.83336e-06
-2.31234e-06
-1.89991e-06
-1.5726e-06
-1.31192e-06
-1.10338e-06
-9.3566e-07
-7.99923e-07
-6.893e-07
-5.98445e-07
-5.2319e-07
-4.60268e-07
-4.07112e-07
-3.61702e-07
-3.22454e-07
-2.88134e-07
-2.57782e-07
-2.30647e-07
-2.06135e-07
-1.83774e-07
-1.63188e-07
-1.44082e-07
-1.26224e-07
-1.09431e-07
-9.35449e-08
-7.84241e-08
-6.3931e-08
-4.99342e-08
-3.63277e-08
-2.29583e-08
-1.09796e-08
5.52735e-05
5.52442e-05
5.51692e-05
5.50473e-05
5.48743e-05
5.46399e-05
5.43297e-05
5.39252e-05
5.34025e-05
5.27314e-05
5.18731e-05
5.07791e-05
4.93888e-05
4.76283e-05
4.54081e-05
4.26226e-05
3.91507e-05
3.4859e-05
2.9608e-05
2.32648e-05
1.57222e-05
6.92544e-06
-3.09307e-06
-1.41744e-05
-2.59967e-05
-3.8053e-05
-4.96601e-05
-6.00127e-05
-6.82911e-05
-7.381e-05
-7.61727e-05
-7.53745e-05
-7.18076e-05
-6.6156e-05
-5.92216e-05
-5.17544e-05
-4.43443e-05
-3.73896e-05
-3.1119e-05
-2.56331e-05
-2.09447e-05
-1.70109e-05
-1.37575e-05
-1.10969e-05
-8.93985e-06
-7.20245e-06
-5.80979e-06
-4.69718e-06
-3.81009e-06
-3.10344e-06
-2.54043e-06
-2.09137e-06
-1.73251e-06
-1.44493e-06
-1.21364e-06
-1.02683e-06
-8.75171e-07
-7.51333e-07
-6.49561e-07
-5.65323e-07
-4.95038e-07
-4.35867e-07
-3.85561e-07
-3.4234e-07
-3.04806e-07
-2.71861e-07
-2.42642e-07
-2.16462e-07
-1.92775e-07
-1.71142e-07
-1.51217e-07
-1.32724e-07
-1.15444e-07
-9.91905e-08
-8.37978e-08
-6.91101e-08
-5.49769e-08
-4.12564e-08
-2.76543e-08
-1.48857e-08
5.5152e-05
5.51188e-05
5.50339e-05
5.48962e-05
5.47015e-05
5.4439e-05
5.40936e-05
5.36458e-05
5.30714e-05
5.23391e-05
5.14099e-05
5.02352e-05
4.87551e-05
4.68973e-05
4.45753e-05
4.16886e-05
3.81237e-05
3.37573e-05
2.84639e-05
2.21274e-05
1.46596e-05
6.02514e-06
-3.72709e-06
-1.44298e-05
-2.57668e-05
-3.72568e-05
-4.82651e-05
-5.80563e-05
-6.58912e-05
-7.11579e-05
-7.35038e-05
-7.29235e-05
-6.97616e-05
-6.46231e-05
-5.82259e-05
-5.12524e-05
-4.42528e-05
-3.76114e-05
-3.15598e-05
-2.62109e-05
-2.15933e-05
-1.768e-05
-1.44116e-05
-1.17126e-05
-9.50352e-06
-7.70753e-06
-6.25477e-06
-5.08388e-06
-4.1424e-06
-3.38636e-06
-2.77944e-06
-2.29195e-06
-1.89988e-06
-1.5839e-06
-1.32854e-06
-1.12144e-06
-9.52791e-07
-8.14786e-07
-7.01241e-07
-6.07243e-07
-5.28883e-07
-4.63039e-07
-4.07222e-07
-3.5945e-07
-3.18153e-07
-2.82091e-07
-2.50285e-07