/*--------------------------------*- C++ -*----------------------------------*\
| =========                 |                                                 |
| \\      /  F ield         | OpenFOAM: The Open Source CFD Toolbox           |
|  \\    /   O peration     | Version:  2512                                  |
|   \\  /    A nd           | Website:  www.openfoam.com                      |
|    \\/     M anipulation  |                                                 |
\*---------------------------------------------------------------------------*/
FoamFile
{
    version     2.0;
    format      ascii;
    arch        "LSB;label=32;scalar=64";
    class       volScalarField;
    location    "100";
    object      omega;
}
// * * * * * * * * * * * * * * * * * * * * * * * * * * * * * * * * * * * * * //

dimensions      [0 0 -1 0 0 0 0];

internalField   nonuniform List<scalar> 
248793
(
8.07067
6.69608
5.69885
4.94658
4.36122
3.89414
3.51361
3.19816
2.93275
2.7066
2.51176
2.34227
2.19357
2.06213
1.94514
1.8404
1.7461
1.66077
1.58321
1.51243
1.44757
1.38795
1.33295
1.28206
1.23485
1.19093
1.14998
1.11171
1.07586
1.04222
1.01058
0.980785
0.95267
0.926099
0.900951
0.877115
0.854491
0.83299
0.812532
0.793042
0.774454
0.756707
0.739746
0.723521
0.707984
0.693093
0.678809
0.665096
0.651921
0.639252
0.627062
0.615323
0.604011
0.593104
0.582581
0.572421
0.562606
0.553119
0.543944
0.535066
0.526471
0.518145
0.510077
0.502253
0.494665
0.4873
0.48015
0.473205
0.466457
0.459897
0.453518
0.447312
0.441272
0.435392
0.429666
0.424088
0.418651
0.413351
0.408184
0.403218
8.07067
6.69608
5.69885
4.94658
4.36122
3.89414
3.51361
3.19816
2.93275
2.7066
2.51176
2.34227
2.19357
2.06213
1.94514
1.8404
1.7461
1.66077
1.58321
1.51243
1.44757
1.38795
1.33295
1.28206
1.23485
1.19093
1.14998
1.11171
1.07586
1.04222
1.01058
0.980786
0.952671
0.926101
0.900953
0.877116
0.854492
0.832992
0.812533
0.793043
0.774455
0.756708
0.739748
0.723522
0.707985
0.693094
0.678811
0.665098
0.651922
0.639253
0.627062
0.615324
0.604012
0.593105
0.582581
0.572421
0.562607
0.55312
0.543945
0.535067
0.526472
0.518146
0.510077
0.502254
0.494665
0.487301
0.480151
0.473206
0.466457
0.459898
0.453518
0.447312
0.441273
0.435393
0.429667
0.424088
0.418651
0.413352
0.408185
0.403218
8.07067
6.69608
5.69885
4.94658
4.36122
3.89414
3.51361
3.19816
2.93275
2.7066
2.51176
2.34227
2.19357
2.06213
1.94514
1.8404
1.7461
1.66077
1.58321
1.51243
1.44757
1.38795
1.33295
1.28206
1.23485
1.19093
1.14998
1.11171
1.07586
1.04222
1.01058
0.980787
0.952672
0.926102
0.900954
0.877118
0.854494
0.832993
0.812535
0.793045
0.774457
0.75671
0.739749
0.723524
0.707987
0.693096
0.678812
0.665099
0.651923
0.639255
0.627064
0.615325
0.604013
0.593106
0.582583
0.572423
0.562608
0.553121
0.543946
0.535068
0.526473
0.518147
0.510078
0.502255
0.494666
0.487302
0.480152
0.473207
0.466458
0.459898
0.453519
0.447313
0.441273
0.435393
0.429667
0.424089
0.418652
0.413352
0.408185
0.403219
8.07067
6.69608
5.69885
4.94658
4.36122
3.89414
3.51361
3.19816
2.93275
2.7066
2.51176
2.34227
2.19357
2.06213
1.94514
1.8404
1.7461
1.66077
1.58321
1.51243
1.44757
1.38795
1.33295
1.28206
1.23485
1.19093
1.14998
1.11171
1.07586
1.04222
1.01059
0.980789
0.952674
0.926104
0.900956
0.87712
0.854496
0.832995
0.812537
0.793047
0.774459
0.756712
0.739751
0.723526
0.707989
0.693098
0.678814
0.665101
0.651925
0.639256
0.627065
0.615327
0.604015
0.593108
0.582584
0.572424
0.562609
0.553122
0.543947
0.535069
0.526474
0.518148
0.510079
0.502256
0.494667
0.487303
0.480153
0.473208
0.466459
0.459899
0.45352
0.447314
0.441274
0.435394
0.429668
0.424089
0.418653
0.413353
0.408186
0.40322
8.07067
6.69608
5.69885
4.94658
4.36122
3.89414
3.51361
3.19816
2.93275
2.7066
2.51176
2.34227
2.19357
2.06213
1.94514
1.8404
1.74609
1.66077
1.58321
1.51243
1.44757
1.38795
1.33295
1.28206
1.23485
1.19093
1.14998
1.11171
1.07586
1.04222
1.01059
0.98079
0.952676
0.926106
0.900958
0.877122
0.854498
0.832997
0.812539
0.793049
0.774461
0.756714
0.739753
0.723528
0.707991
0.6931
0.678816
0.665103
0.651927
0.639258
0.627067
0.615328
0.604017
0.593109
0.582586
0.572426
0.562611
0.553124
0.543949
0.53507
0.526475
0.518149
0.51008
0.502257
0.494668
0.487304
0.480154
0.473209
0.46646
0.4599
0.453521
0.447315
0.441275
0.435395
0.429669
0.42409
0.418654
0.413354
0.408187
0.403221
8.07067
6.69608
5.69885
4.94658
4.36122
3.89414
3.51361
3.19816
2.93275
2.7066
2.51176
2.34227
2.19357
2.06213
1.94514
1.8404
1.74609
1.66077
1.58321
1.51243
1.44757
1.38795
1.33295
1.28206
1.23485
1.19093
1.14998
1.11171
1.07586
1.04222
1.01059
0.980792
0.952678
0.926108
0.90096
0.877124
0.8545
0.833
0.812541
0.793051
0.774463
0.756717
0.739756
0.72353
0.707993
0.693102
0.678818
0.665105
0.651929
0.63926
0.627069
0.61533
0.604018
0.593111
0.582587
0.572427
0.562612
0.553125
0.54395
0.535072
0.526476
0.518151
0.510082
0.502259
0.49467
0.487305
0.480155
0.47321
0.466461
0.459901
0.453522
0.447316
0.441276
0.435396
0.42967
0.424091
0.418655
0.413355
0.408188
0.403221
8.07067
6.69608
5.69885
4.94658
4.36122
3.89414
3.51361
3.19816
2.93275
2.7066
2.51176
2.34227
2.19357
2.06213
1.94514
1.8404
1.74609
1.66077
1.58321
1.51243
1.44757
1.38795
1.33295
1.28206
1.23485
1.19093
1.14998
1.11171
1.07586
1.04222
1.01059
0.980794
0.95268
0.92611
0.900963
0.877127
0.854503
0.833002
0.812544
0.793054
0.774466
0.756719
0.739758
0.723532
0.707995
0.693104
0.67882
0.665107
0.651931
0.639262
0.627071
0.615332
0.60402
0.593113
0.582589
0.572429
0.562614
0.553127
0.543952
0.535073
0.526478
0.518152
0.510083
0.50226
0.494671
0.487306
0.480156
0.473211
0.466463
0.459903
0.453523
0.447317
0.441277
0.435397
0.429671
0.424092
0.418656
0.413356
0.408189
0.403222
8.07067
6.69608
5.69885
4.94658
4.36122
3.89414
3.51361
3.19816
2.93275
2.7066
2.51176
2.34227
2.19357
2.06213
1.94514
1.8404
1.74609
1.66077
1.58321
1.51243
1.44757
1.38795
1.33295
1.28206
1.23485
1.19093
1.14998
1.11171
1.07587
1.04222
1.01059
0.980796
0.952682
0.926113
0.900965
0.877129
0.854506
0.833005
0.812547
0.793057
0.774469
0.756722
0.739761
0.723535
0.707998
0.693107
0.678823
0.665109
0.651933
0.639264
0.627073
0.615334
0.604022
0.593115
0.582591
0.572431
0.562616
0.553129
0.543953
0.535075
0.52648
0.518154
0.510085
0.502261
0.494673
0.487308
0.480158
0.473213
0.466464
0.459904
0.453524
0.447318
0.441279
0.435399
0.429672
0.424093
0.418657
0.413357
0.40819
0.403223
8.07067
6.69608
5.69885
4.94658
4.36122
3.89414
3.51361
3.19816
2.93275
2.7066
2.51176
2.34227
2.19357
2.06213
1.94514
1.8404
1.74609
1.66077
1.58321
1.51243
1.44757
1.38795
1.33295
1.28206
1.23485
1.19094
1.14999
1.11171
1.07587
1.04223
1.01059
0.980799
0.952685
0.926115
0.900968
0.877132
0.854509
0.833008
0.81255
0.79306
0.774471
0.756725
0.739764
0.723538
0.708
0.693109
0.678825
0.665112
0.651936
0.639266
0.627075
0.615336
0.604024
0.593117
0.582593
0.572433
0.562618
0.55313
0.543955
0.535077
0.526481
0.518155
0.510086
0.502263
0.494674
0.487309
0.480159
0.473214
0.466465
0.459905
0.453526
0.44732
0.44128
0.4354
0.429673
0.424095
0.418658
0.413358
0.408191
0.403225
8.07067
6.69608
5.69885
4.94658
4.36122
3.89414
3.51361
3.19816
2.93275
2.7066
2.51176
2.34227
2.19357
2.06213
1.94514
1.8404
1.74609
1.66077
1.58321
1.51243
1.44757
1.38795
1.33295
1.28206
1.23485
1.19094
1.14999
1.11171
1.07587
1.04223
1.0106
0.980801
0.952687
0.926118
0.900971
0.877135
0.854512
0.833011
0.812553
0.793063
0.774474
0.756727
0.739766
0.72354
0.708003
0.693112
0.678828
0.665114
0.651938
0.639269
0.627078
0.615339
0.604027
0.593119
0.582595
0.572435
0.56262
0.553132
0.543957
0.535079
0.526483
0.518157
0.510088
0.502265
0.494676
0.487311
0.480161
0.473215
0.466467
0.459907
0.453527
0.447321
0.441281
0.435401
0.429675
0.424096
0.418659
0.413359
0.408192
0.403226
8.07067
6.69608
5.69885
4.94658
4.36122
3.89414
3.51361
3.19816
2.93275
2.7066
2.51176
2.34227
2.19357
2.06213
1.94514
1.8404
1.74609
1.66077
1.58321
1.51243
1.44757
1.38795
1.33295
1.28206
1.23485
1.19094
1.14999
1.11172
1.07587
1.04223
1.0106
0.980803
0.95269
0.926121
0.900974
0.877138
0.854515
0.833014
0.812556
0.793066
0.774477
0.75673
0.739769
0.723543
0.708006
0.693115
0.67883
0.665117
0.651941
0.639271
0.62708
0.615341
0.604029
0.593121
0.582597
0.572437
0.562622
0.553134
0.543959
0.535081
0.526485
0.518159
0.51009
0.502266
0.494677
0.487313
0.480162
0.473217
0.466468
0.459908
0.453529
0.447322
0.441282
0.435402
0.429676
0.424097
0.41866
0.41336
0.408193
0.403227
8.07067
6.69608
5.69885
4.94658
4.36122
3.89414
3.51361
3.19816
2.93275
2.7066
2.51176
2.34227
2.19357
2.06212
1.94514
1.8404
1.74609
1.66077
1.58321
1.51242
1.44757
1.38795
1.33295
1.28206
1.23485
1.19094
1.14999
1.11172
1.07587
1.04223
1.0106
0.980806
0.952692
0.926124
0.900977
0.877141
0.854518
0.833017
0.812559
0.793069
0.774481
0.756733
0.739772
0.723546
0.708009
0.693117
0.678833
0.665119
0.651943
0.639274
0.627082
0.615343
0.604031
0.593124
0.582599
0.572439
0.562624
0.553136
0.543961
0.535082
0.526487
0.518161
0.510092
0.502268
0.494679
0.487314
0.480164
0.473218
0.46647
0.45991
0.45353
0.447324
0.441284
0.435404
0.429677
0.424098
0.418662
0.413362
0.408194
0.403228
8.07067
6.69608
5.69885
4.94658
4.36122
3.89414
3.51361
3.19816
2.93275
2.7066
2.51176
2.34227
2.19357
2.06212
1.94514
1.8404
1.74609
1.66076
1.58321
1.51242
1.44757
1.38795
1.33295
1.28206
1.23485
1.19094
1.14999
1.11172
1.07587
1.04223
1.0106
0.980808
0.952695
0.926127
0.90098
0.877144
0.854521
0.833021
0.812562
0.793072
0.774484
0.756736
0.739775
0.723549
0.708011
0.69312
0.678836
0.665122
0.651946
0.639276
0.627085
0.615345
0.604033
0.593126
0.582601
0.572441
0.562625
0.553138
0.543963
0.535084
0.526488
0.518162
0.510093
0.50227
0.494681
0.487316
0.480165
0.47322
0.466471
0.459911
0.453531
0.447325
0.441285
0.435405
0.429678
0.4241
0.418663
0.413363
0.408195
0.403229
8.07067
6.69608
5.69885
4.94658
4.36122
3.89414
3.51361
3.19816
2.93275
2.7066
2.51176
2.34227
2.19357
2.06212
1.94514
1.84039
1.74609
1.66076
1.58321
1.51242
1.44757
1.38795
1.33295
1.28206
1.23485
1.19094
1.14999
1.11172
1.07588
1.04224
1.01061
0.98081
0.952698
0.926129
0.900983
0.877147
0.854524
0.833023
0.812565
0.793075
0.774486
0.756739
0.739778
0.723552
0.708014
0.693123
0.678838
0.665124
0.651948
0.639278
0.627087
0.615347
0.604035
0.593128
0.582603
0.572443
0.562627
0.55314
0.543964
0.535086
0.52649
0.518164
0.510095
0.502271
0.494682
0.487317
0.480167
0.473221
0.466473
0.459912
0.453533
0.447326
0.441286
0.435406
0.42968
0.424101
0.418664
0.413364
0.408197
0.40323
8.07067
6.69608
5.69885
4.94658
4.36122
3.89414
3.51361
3.19816
2.93275
2.7066
2.51176
2.34227
2.19357
2.06212
1.94514
1.84039
1.74609
1.66076
1.58321
1.51242
1.44757
1.38795
1.33295
1.28206
1.23485
1.19094
1.14999
1.11172
1.07588
1.04224
1.01061
0.980813
0.9527
0.926132
0.900985
0.87715
0.854527
0.833026
0.812568
0.793077
0.774489
0.756742
0.73978
0.723554
0.708016
0.693125
0.67884
0.665126
0.65195
0.63928
0.627089
0.615349
0.604037
0.593129
0.582605
0.572444
0.562629
0.553142
0.543966
0.535087
0.526492
0.518165
0.510096
0.502273
0.494683
0.487318
0.480168
0.473223
0.466474
0.459914
0.453534
0.447327
0.441288
0.435407
0.429681
0.424102
0.418665
0.413365
0.408198
0.403231
8.07067
6.69608
5.69885
4.94658
4.36122
3.89414
3.51361
3.19816
2.93275
2.7066
2.51176
2.34227
2.19357
2.06212
1.94514
1.84039
1.74609
1.66076
1.58321
1.51242
1.44757
1.38794
1.33295
1.28206
1.23485
1.19094
1.14999
1.11172
1.07588
1.04224
1.01061
0.980814
0.952702
0.926134
0.900987
0.877152
0.854529
0.833029
0.81257
0.79308
0.774491
0.756744
0.739783
0.723556
0.708019
0.693127
0.678842
0.665128
0.651952
0.639282
0.627091
0.615351
0.604039
0.593131
0.582607
0.572446
0.562631
0.553143
0.543967
0.535089
0.526493
0.518167
0.510097
0.502274
0.494685
0.48732
0.480169
0.473224
0.466475
0.459915
0.453535
0.447329
0.441289
0.435408
0.429682
0.424103
0.418666
0.413366
0.408198
0.403232
8.07067
6.69608
5.69885
4.94658
4.36122
3.89414
3.51361
3.19816
2.93275
2.7066
2.51176
2.34227
2.19357
2.06212
1.94514
1.84039
1.74609
1.66076
1.58321
1.51242
1.44757
1.38794
1.33295
1.28206
1.23485
1.19094
1.14999
1.11172
1.07588
1.04224
1.01061
0.980816
0.952704
0.926136
0.900989
0.877154
0.854531
0.833031
0.812572
0.793082
0.774493
0.756746
0.739785
0.723558
0.70802
0.693129
0.678844
0.66513
0.651954
0.639284
0.627092
0.615353
0.60404
0.593133
0.582608
0.572447
0.562632
0.553144
0.543969
0.53509
0.526494
0.518168
0.510099
0.502275
0.494686
0.487321
0.48017
0.473225
0.466476
0.459916
0.453536
0.447329
0.441289
0.435409
0.429683
0.424104
0.418667
0.413367
0.408199
0.403233
8.07067
6.69608
5.69885
4.94658
4.36122
3.89414
3.51361
3.19816
2.93275
2.7066
2.51176
2.34227
2.19357
2.06212
1.94514
1.84039
1.74609
1.66076
1.58321
1.51242
1.44757
1.38794
1.33295
1.28206
1.23485
1.19094
1.14999
1.11172
1.07588
1.04224
1.01061
0.980817
0.952705
0.926137
0.900991
0.877156
0.854533
0.833032
0.812574
0.793083
0.774495
0.756748
0.739786
0.72356
0.708022
0.69313
0.678845
0.665131
0.651955
0.639285
0.627094
0.615354
0.604041
0.593134
0.582609
0.572448
0.562633
0.553145
0.54397
0.535091
0.526495
0.518169
0.510099
0.502276
0.494686
0.487321
0.480171
0.473225
0.466477
0.459916
0.453537
0.44733
0.44129
0.43541
0.429683
0.424104
0.418667
0.413367
0.4082
0.403233
8.07067
6.69608
5.69885
4.94658
4.36122
3.89414
3.51361
3.19816
2.93275
2.7066
2.51176
2.34227
2.19357
2.06212
1.94514
1.84039
1.74609
1.66076
1.58321
1.51242
1.44757
1.38794
1.33295
1.28206
1.23485
1.19094
1.14999
1.11172
1.07588
1.04224
1.01061
0.980818
0.952706
0.926138
0.900992
0.877157
0.854534
0.833033
0.812575
0.793084
0.774496
0.756749
0.739787
0.723561
0.708023
0.693131
0.678846
0.665132
0.651956
0.639286
0.627094
0.615355
0.604042
0.593134
0.58261
0.572449
0.562634
0.553146
0.54397
0.535092
0.526496
0.518169
0.5101
0.502276
0.494687
0.487322
0.480171
0.473226
0.466477
0.459917
0.453537
0.447331
0.441291
0.43541
0.429684
0.424105
0.418668
0.413368
0.4082
0.403234
8.07067
6.69608
5.69885
4.94658
4.36122
3.89414
3.51361
3.19816
2.93275
2.7066
2.51176
2.34227
2.19357
2.06212
1.94514
1.84039
1.74609
1.66076
1.58321
1.51242
1.44757
1.38794
1.33295
1.28206
1.23485
1.19094
1.14999
1.11172
1.07588
1.04224
1.01061
0.980819
0.952707
0.926139
0.900993
0.877158
0.854534
0.833034
0.812575
0.793085
0.774497
0.756749
0.739788
0.723561
0.708023
0.693132
0.678847
0.665133
0.651956
0.639286
0.627095
0.615355
0.604043
0.593135
0.58261
0.572449
0.562634
0.553146
0.543971
0.535092
0.526496
0.51817
0.5101
0.502277
0.494687
0.487322
0.480172
0.473226
0.466477
0.459917
0.453537
0.447331
0.441291
0.435411
0.429684
0.424105
0.418668
0.413368
0.4082
0.403234
8.07067
6.69608
5.69885
4.94658
4.36122
3.89414
3.51361
3.19816
2.93275
2.7066
2.51176
2.34227
2.19357
2.06212
1.94514
1.84039
1.74609
1.66076
1.58321
1.51242
1.44757
1.38794
1.33295
1.28206
1.23485
1.19094
1.14999
1.11172
1.07588
1.04224
1.01061
0.980819
0.952707
0.926139
0.900993
0.877157
0.854534
0.833034
0.812575
0.793085
0.774496
0.756749
0.739788
0.723561
0.708023
0.693132
0.678847
0.665133
0.651956
0.639286
0.627095
0.615355
0.604043
0.593135
0.58261
0.572449
0.562634
0.553146
0.543971
0.535092
0.526496
0.51817
0.5101
0.502277
0.494687
0.487322
0.480172
0.473226
0.466477
0.459917
0.453537
0.447331
0.441291
0.435411
0.429684
0.424105
0.418668
0.413368
0.4082
0.403234
8.07067
6.69608
5.69885
4.94658
4.36122
3.89414
3.51361
3.19816
2.93275
2.7066
2.51176
2.34227
2.19357
2.06212
1.94514
1.84039
1.74609
1.66076
1.58321
1.51242
1.44757
1.38794
1.33295
1.28206
1.23485
1.19094
1.14999
1.11172
1.07588
1.04224
1.01061
0.980818
0.952706
0.926138
0.900992
0.877157
0.854534
0.833033
0.812575
0.793084
0.774496
0.756749
0.739787
0.723561
0.708023
0.693131
0.678846
0.665132
0.651956
0.639286
0.627094
0.615355
0.604042
0.593134
0.58261
0.572449
0.562633
0.553146
0.54397
0.535092
0.526496
0.518169
0.5101
0.502276
0.494687
0.487322
0.480171
0.473226
0.466477
0.459917
0.453537
0.447331
0.441291
0.43541
0.429684
0.424105
0.418668
0.413368
0.4082
0.403234
8.07067
6.69608
5.69885
4.94658
4.36122
3.89414
3.51361
3.19816
2.93275
2.7066
2.51176
2.34227
2.19357
2.06212
1.94514
1.84039
1.74609
1.66076
1.58321
1.51242
1.44757
1.38794
1.33295
1.28206
1.23485
1.19094
1.14999
1.11172
1.07588
1.04224
1.01061
0.980818
0.952705
0.926137
0.900991
0.877156
0.854533
0.833032
0.812574
0.793083
0.774495
0.756748
0.739786
0.72356
0.708022
0.69313
0.678845
0.665131
0.651955
0.639285
0.627093
0.615354
0.604041
0.593134
0.582609
0.572448
0.562633
0.553145
0.54397
0.535091
0.526495
0.518169
0.510099
0.502276
0.494686
0.487321
0.480171
0.473225
0.466477
0.459916
0.453537
0.44733
0.44129
0.43541
0.429683
0.424104
0.418667
0.413367
0.4082
0.403233
8.07067
6.69608
5.69885
4.94658
4.36122
3.89414
3.51361
3.19816
2.93275
2.7066
2.51176
2.34227
2.19357
2.06212
1.94514
1.84039
1.74609
1.66076
1.58321
1.51242
1.44757
1.38794
1.33295
1.28206
1.23485
1.19094
1.14999
1.11172
1.07588
1.04224
1.01061
0.980816
0.952704
0.926136
0.900989
0.877154
0.854531
0.833031
0.812572
0.793082
0.774493
0.756746
0.739784
0.723558
0.70802
0.693129
0.678844
0.66513
0.651953
0.639284
0.627092
0.615353
0.60404
0.593132
0.582608
0.572447
0.562632
0.553144
0.543969
0.53509
0.526494
0.518168
0.510099
0.502275
0.494686
0.487321
0.48017
0.473225
0.466476
0.459916
0.453536
0.447329
0.441289
0.435409
0.429683
0.424104
0.418667
0.413367
0.408199
0.403233
8.07067
6.69608
5.69885
4.94658
4.36122
3.89414
3.51361
3.19816
2.93275
2.7066
2.51176
2.34227
2.19357
2.06212
1.94514
1.84039
1.74609
1.66076
1.58321
1.51242
1.44757
1.38795
1.33295
1.28206
1.23485
1.19094
1.14999
1.11172
1.07588
1.04224
1.01061
0.980815
0.952702
0.926134
0.900987
0.877152
0.854529
0.833029
0.81257
0.79308
0.774491
0.756744
0.739783
0.723556
0.708018
0.693127
0.678842
0.665128
0.651952
0.639282
0.627091
0.615351
0.604039
0.593131
0.582607
0.572446
0.56263
0.553143
0.543967
0.535089
0.526493
0.518167
0.510097
0.502274
0.494685
0.48732
0.480169
0.473224
0.466475
0.459915
0.453535
0.447328
0.441289
0.435408
0.429682
0.424103
0.418666
0.413366
0.408198
0.403232
8.07067
6.69608
5.69885
4.94658
4.36122
3.89414
3.51361
3.19816
2.93275
2.7066
2.51176
2.34227
2.19357
2.06212
1.94514
1.84039
1.74609
1.66076
1.58321
1.51242
1.44757
1.38795
1.33295
1.28206
1.23485
1.19094
1.14999
1.11172
1.07588
1.04224
1.01061
0.980813
0.9527
0.926132
0.900985
0.87715
0.854527
0.833026
0.812567
0.793077
0.774489
0.756742
0.73978
0.723554
0.708016
0.693125
0.67884
0.665126
0.65195
0.63928
0.627089
0.615349
0.604037
0.593129
0.582605
0.572444
0.562629
0.553142
0.543966
0.535087
0.526492
0.518165
0.510096
0.502273
0.494683
0.487318
0.480168
0.473223
0.466474
0.459914
0.453534
0.447327
0.441287
0.435407
0.429681
0.424102
0.418665
0.413365
0.408198
0.403231
8.07067
6.69608
5.69885
4.94658
4.36122
3.89414
3.51361
3.19816
2.93275
2.7066
2.51176
2.34227
2.19357
2.06212
1.94514
1.8404
1.74609
1.66076
1.58321
1.51242
1.44757
1.38795
1.33295
1.28206
1.23485
1.19094
1.14999
1.11172
1.07588
1.04224
1.01061
0.980811
0.952698
0.92613
0.900983
0.877147
0.854524
0.833023
0.812565
0.793075
0.774486
0.756739
0.739778
0.723552
0.708014
0.693123
0.678838
0.665124
0.651948
0.639278
0.627087
0.615347
0.604035
0.593128
0.582603
0.572443
0.562627
0.55314
0.543964
0.535086
0.52649
0.518164
0.510095
0.502271
0.494682
0.487317
0.480167
0.473221
0.466473
0.459912
0.453533
0.447326
0.441286
0.435406
0.42968
0.424101
0.418664
0.413364
0.408197
0.40323
8.07067
6.69608
5.69885
4.94658
4.36122
3.89414
3.51361
3.19816
2.93275
2.7066
2.51176
2.34227
2.19357
2.06212
1.94514
1.8404
1.74609
1.66076
1.58321
1.51242
1.44757
1.38795
1.33295
1.28206
1.23485
1.19094
1.14999
1.11172
1.07587
1.04223
1.0106
0.980809
0.952696
0.926127
0.90098
0.877144
0.854521
0.833021
0.812562
0.793072
0.774483
0.756736
0.739775
0.723549
0.708011
0.69312
0.678835
0.665122
0.651946
0.639276
0.627085
0.615345
0.604033
0.593126
0.582601
0.572441
0.562625
0.553138
0.543963
0.535084
0.526488
0.518162
0.510093
0.50227
0.494681
0.487316
0.480165
0.47322
0.466471
0.459911
0.453531
0.447325
0.441285
0.435405
0.429678
0.4241
0.418663
0.413363
0.408195
0.403229
8.07067
6.69608
5.69885
4.94658
4.36122
3.89414
3.51361
3.19816
2.93275
2.7066
2.51176
2.34227
2.19357
2.06212
1.94514
1.8404
1.74609
1.66077
1.58321
1.51242
1.44757
1.38795
1.33295
1.28206
1.23485
1.19094
1.14999
1.11172
1.07587
1.04223
1.0106
0.980806
0.952693
0.926124
0.900977
0.877141
0.854518
0.833018
0.812559
0.793069
0.774481
0.756733
0.739772
0.723546
0.708009
0.693117
0.678833
0.665119
0.651943
0.639274
0.627083
0.615343
0.604031
0.593124
0.582599
0.572439
0.562624
0.553136
0.543961
0.535082
0.526487
0.518161
0.510092
0.502268
0.494679
0.487314
0.480164
0.473218
0.46647
0.45991
0.45353
0.447324
0.441284
0.435404
0.429677
0.424098
0.418662
0.413362
0.408194
0.403228
8.07067
6.69608
5.69885
4.94658
4.36122
3.89414
3.51361
3.19816
2.93275
2.7066
2.51176
2.34227
2.19357
2.06213
1.94514
1.8404
1.74609
1.66077
1.58321
1.51243
1.44757
1.38795
1.33295
1.28206
1.23485
1.19094
1.14999
1.11172
1.07587
1.04223
1.0106
0.980804
0.95269
0.926121
0.900974
0.877138
0.854515
0.833014
0.812556
0.793066
0.774478
0.756731
0.739769
0.723543
0.708006
0.693115
0.67883
0.665117
0.651941
0.639271
0.62708
0.615341
0.604029
0.593121
0.582597
0.572437
0.562622
0.553134
0.543959
0.535081
0.526485
0.518159
0.51009
0.502266
0.494677
0.487313
0.480162
0.473217
0.466468
0.459908
0.453529
0.447322
0.441283
0.435402
0.429676
0.424097
0.41866
0.41336
0.408193
0.403227
8.07067
6.69608
5.69885
4.94658
4.36122
3.89414
3.51361
3.19816
2.93275
2.7066
2.51176
2.34227
2.19357
2.06213
1.94514
1.8404
1.74609
1.66077
1.58321
1.51243
1.44757
1.38795
1.33295
1.28206
1.23485
1.19094
1.14999
1.11172
1.07587
1.04223
1.0106
0.980802
0.952688
0.926119
0.900971
0.877136
0.854512
0.833011
0.812553
0.793063
0.774475
0.756728
0.739767
0.723541
0.708003
0.693112
0.678828
0.665114
0.651938
0.639269
0.627078
0.615339
0.604027
0.593119
0.582595
0.572435
0.56262
0.553132
0.543957
0.535079
0.526483
0.518157
0.510088
0.502265
0.494676
0.487311
0.480161
0.473216
0.466467
0.459907
0.453527
0.447321
0.441281
0.435401
0.429675
0.424096
0.418659
0.413359
0.408192
0.403226
8.07067
6.69608
5.69885
4.94658
4.36122
3.89414
3.51361
3.19816
2.93275
2.7066
2.51176
2.34227
2.19357
2.06213
1.94514
1.8404
1.74609
1.66077
1.58321
1.51243
1.44757
1.38795
1.33295
1.28206
1.23485
1.19094
1.14999
1.11171
1.07587
1.04223
1.0106
0.980799
0.952685
0.926116
0.900969
0.877133
0.854509
0.833009
0.81255
0.79306
0.774472
0.756725
0.739764
0.723538
0.708001
0.693109
0.678825
0.665112
0.651936
0.639267
0.627076
0.615336
0.604025
0.593117
0.582593
0.572433
0.562618
0.553131
0.543955
0.535077
0.526481
0.518155
0.510087
0.502263
0.494674
0.48731
0.480159
0.473214
0.466466
0.459905
0.453526
0.44732
0.44128
0.4354
0.429674
0.424095
0.418658
0.413358
0.408191
0.403225
8.07067
6.69608
5.69885
4.94658
4.36122
3.89414
3.51361
3.19816
2.93275
2.7066
2.51176
2.34227
2.19357
2.06213
1.94514
1.8404
1.74609
1.66077
1.58321
1.51243
1.44757
1.38795
1.33295
1.28206
1.23485
1.19094
1.14999
1.11171
1.07587
1.04223
1.01059
0.980797
0.952683
0.926114
0.900966
0.87713
0.854506
0.833006
0.812547
0.793057
0.774469
0.756722
0.739761
0.723535
0.707998
0.693107
0.678823
0.665109
0.651934
0.639264
0.627073
0.615334
0.604023
0.593115
0.582591
0.572431
0.562616
0.553129
0.543954
0.535075
0.52648
0.518154
0.510085
0.502262
0.494673
0.487308
0.480158
0.473213
0.466464
0.459904
0.453525
0.447318
0.441279
0.435399
0.429672
0.424094
0.418657
0.413357
0.40819
0.403224
8.07067
6.69608
5.69885
4.94658
4.36122
3.89414
3.51361
3.19816
2.93275
2.7066
2.51176
2.34227
2.19357
2.06213
1.94514
1.8404
1.74609
1.66077
1.58321
1.51243
1.44757
1.38795
1.33295
1.28206
1.23485
1.19093
1.14998
1.11171
1.07587
1.04222
1.01059
0.980795
0.952681
0.926111
0.900963
0.877127
0.854504
0.833003
0.812544
0.793054
0.774466
0.756719
0.739758
0.723533
0.707996
0.693105
0.678821
0.665107
0.651931
0.639262
0.627071
0.615332
0.604021
0.593113
0.582589
0.572429
0.562614
0.553127
0.543952
0.535074
0.526478
0.518152
0.510084
0.50226
0.494671
0.487307
0.480156
0.473211
0.466463
0.459903
0.453523
0.447317
0.441278
0.435398
0.429671
0.424093
0.418656
0.413356
0.408189
0.403223
8.07067
6.69608
5.69885
4.94658
4.36122
3.89414
3.51361
3.19816
2.93275
2.7066
2.51176
2.34227
2.19357
2.06213
1.94514
1.8404
1.74609
1.66077
1.58321
1.51243
1.44757
1.38795
1.33295
1.28206
1.23485
1.19093
1.14998
1.11171
1.07586
1.04222
1.01059
0.980793
0.952679
0.926109
0.900961
0.877125
0.854501
0.833001
0.812542
0.793052
0.774464
0.756717
0.739756
0.72353
0.707993
0.693102
0.678818
0.665105
0.651929
0.63926
0.627069
0.61533
0.604019
0.593112
0.582588
0.572427
0.562612
0.553125
0.54395
0.535072
0.526477
0.518151
0.510082
0.502259
0.49467
0.487305
0.480155
0.47321
0.466462
0.459902
0.453522
0.447316
0.441276
0.435397
0.42967
0.424091
0.418655
0.413355
0.408188
0.403222
8.07067
6.69608
5.69885
4.94658
4.36122
3.89414
3.51361
3.19816
2.93275
2.7066
2.51176
2.34227
2.19357
2.06213
1.94514
1.8404
1.7461
1.66077
1.58321
1.51243
1.44757
1.38795
1.33295
1.28206
1.23485
1.19093
1.14998
1.11171
1.07586
1.04222
1.01059
0.980791
0.952677
0.926107
0.900959
0.877123
0.854499
0.832998
0.81254
0.793049
0.774461
0.756715
0.739754
0.723528
0.707991
0.6931
0.678816
0.665103
0.651927
0.639258
0.627068
0.615329
0.604017
0.59311
0.582586
0.572426
0.562611
0.553124
0.543949
0.535071
0.526475
0.518149
0.510081
0.502258
0.494669
0.487304
0.480154
0.473209
0.466461
0.459901
0.453521
0.447315
0.441275
0.435395
0.429669
0.424091
0.418654
0.413354
0.408187
0.403221
8.07067
6.69608
5.69885
4.94658
4.36122
3.89414
3.51361
3.19816
2.93275
2.7066
2.51176
2.34227
2.19357
2.06213
1.94514
1.8404
1.7461
1.66077
1.58321
1.51243
1.44757
1.38795
1.33295
1.28206
1.23485
1.19093
1.14998
1.11171
1.07586
1.04222
1.01059
0.98079
0.952675
0.926105
0.900957
0.877121
0.854497
0.832996
0.812537
0.793047
0.774459
0.756713
0.739752
0.723526
0.707989
0.693098
0.678814
0.665101
0.651926
0.639257
0.627066
0.615327
0.604015
0.593108
0.582585
0.572424
0.562609
0.553123
0.543948
0.535069
0.526474
0.518148
0.51008
0.502256
0.494668
0.487303
0.480153
0.473208
0.46646
0.4599
0.45352
0.447314
0.441274
0.435395
0.429668
0.42409
0.418653
0.413353
0.408186
0.40322
8.07067
6.69608
5.69885
4.94658
4.36122
3.89414
3.51361
3.19816
2.93275
2.7066
2.51176
2.34227
2.19357
2.06213
1.94514
1.8404
1.7461
1.66077
1.58321
1.51243
1.44757
1.38795
1.33295
1.28206
1.23485
1.19093
1.14998
1.11171
1.07586
1.04222
1.01059
0.980788
0.952673
0.926103
0.900955
0.877119
0.854495
0.832994
0.812535
0.793045
0.774457
0.756711
0.73975
0.723524
0.707987
0.693097
0.678813
0.6651
0.651924
0.639255
0.627064
0.615325
0.604014
0.593107
0.582583
0.572423
0.562608
0.553121
0.543946
0.535068
0.526473
0.518147
0.510078
0.502255
0.494667
0.487302
0.480152
0.473207
0.466459
0.459899
0.453519
0.447313
0.441274
0.435394
0.429667
0.424089
0.418652
0.413352
0.408185
0.403219
8.07067
6.69608
5.69885
4.94658
4.36122
3.89414
3.51361
3.19816
2.93275
2.7066
2.51176
2.34227
2.19357
2.06213
1.94514
1.8404
1.7461
1.66077
1.58321
1.51243
1.44757
1.38795
1.33295
1.28206
1.23485
1.19093
1.14998
1.11171
1.07586
1.04222
1.01058
0.980787
0.952672
0.926102
0.900954
0.877117
0.854493
0.832992
0.812534
0.793044
0.774456
0.756709
0.739748
0.723523
0.707986
0.693095
0.678811
0.665098
0.651923
0.639254
0.627063
0.615324
0.604013
0.593106
0.582582
0.572422
0.562607
0.55312
0.543945
0.535067
0.526472
0.518146
0.510078
0.502254
0.494666
0.487301
0.480151
0.473206
0.466458
0.459898
0.453519
0.447313
0.441273
0.435393
0.429667
0.424088
0.418652
0.413352
0.408185
0.403219
8.07067
6.69608
5.69885
4.94658
4.36122
3.89414
3.51361
3.19816
2.93275
2.7066
2.51176
2.34227
2.19357
2.06213
1.94514
1.8404
1.7461
1.66077
1.58321
1.51243
1.44757
1.38795
1.33295
1.28206
1.23485
1.19093
1.14998
1.11171
1.07586
1.04222
1.01058
0.980786
0.952671
0.9261
0.900952
0.877116
0.854492
0.832991
0.812533
0.793043
0.774455
0.756708
0.739747
0.723522
0.707985
0.693094
0.67881
0.665097
0.651922
0.639253
0.627062
0.615323
0.604012
0.593105
0.582581
0.572421
0.562606
0.55312
0.543945
0.535067
0.526471
0.518146
0.510077
0.502254
0.494665
0.487301
0.480151
0.473206
0.466457
0.459897
0.453518
0.447312
0.441273
0.435393
0.429666
0.424088
0.418651
0.413351
0.408184
0.403218
8.07067
6.69608
5.69885
4.94658
4.36122
3.89414
3.51361
3.19816
2.93275
2.7066
2.51176
2.34227
2.19357
2.06213
1.94514
1.8404
1.7461
1.66077
1.58321
1.51243
1.44757
1.38795
1.33295
1.28206
1.23485
1.19093
1.14998
1.11171
1.07586
1.04222
1.01058
0.980786
0.952671
0.926101
0.900953
0.877116
0.854492
0.832992
0.812533
0.793043
0.774455
0.756708
0.739748
0.723522
0.707985
0.693094
0.678811
0.665098
0.651922
0.639253
0.627062
0.615324
0.604012
0.593105
0.582582
0.572421
0.562607
0.55312
0.543945
0.535067
0.526472
0.518146
0.510077
0.502254
0.494665
0.487301
0.480151
0.473206
0.466458
0.459898
0.453518
0.447312
0.441273
0.435393
0.429667
0.424088
0.418651
0.413352
0.408185
0.403218
8.07067
6.69608
5.69885
4.94658
4.36122
3.89414
3.51361
3.19816
2.93275
2.7066
2.51176
2.34227
2.19357
2.06213
1.94514
1.8404
1.7461
1.66077
1.58321
1.51243
1.44757
1.38795
1.33295
1.28206
1.23485
1.19093
1.14998
1.11171
1.07586
1.04222
1.01058
0.980787
0.952672
0.926102
0.900954
0.877118
0.854494
0.832993
0.812534
0.793044
0.774456
0.75671
0.739749
0.723523
0.707986
0.693096
0.678812
0.665099
0.651923
0.639254
0.627064
0.615325
0.604013
0.593106
0.582582
0.572422
0.562607
0.553121
0.543946
0.535068
0.526472
0.518146
0.510078
0.502255
0.494666
0.487301
0.480151
0.473206
0.466458
0.459898
0.453519
0.447313
0.441273
0.435393
0.429667
0.424088
0.418652
0.413352
0.408185
0.403219
8.07067
6.69608
5.69885
4.94658
4.36122
3.89414
3.51361
3.19816
2.93275
2.7066
2.51176
2.34227
2.19357
2.06213
1.94514
1.8404
1.7461
1.66077
1.58321
1.51243
1.44757
1.38795
1.33295
1.28206
1.23485
1.19093
1.14998
1.11171
1.07586
1.04222
1.01059
0.980789
0.952674
0.926104
0.900956
0.87712
0.854496
0.832995
0.812536
0.793046
0.774458
0.756712
0.739751
0.723525
0.707988
0.693097
0.678813
0.6651
0.651925
0.639256
0.627065
0.615326
0.604014
0.593107