/*--------------------------------*- C++ -*----------------------------------*\
| =========                 |                                                 |
| \\      /  F ield         | OpenFOAM: The Open Source CFD Toolbox           |
|  \\    /   O peration     | Version:  2512                                  |
|   \\  /    A nd           | Website:  www.openfoam.com                      |
|    \\/     M anipulation  |                                                 |
\*---------------------------------------------------------------------------*/
FoamFile
{
    version     2.0;
    format      ascii;
    arch        "LSB;label=32;scalar=64";
    class       volScalarField;
    location    "100";
    object      p;
}
// * * * * * * * * * * * * * * * * * * * * * * * * * * * * * * * * * * * * * //

dimensions      [0 2 -2 0 0 0 0];

internalField   nonuniform List<scalar> 
248793
(
5.55551e-06
5.55106e-06
5.53937e-06
5.52062e-06
5.49468e-06
5.46068e-06
5.41731e-06
5.36288e-06
5.29529e-06
5.21201e-06
5.11011e-06
4.98625e-06
4.83674e-06
4.65759e-06
4.44456e-06
4.19339e-06
3.90007e-06
3.56124e-06
3.17453e-06
2.73916e-06
2.25648e-06
1.73065e-06
1.16919e-06
5.83342e-07
-1.19979e-08
-5.98739e-07
-1.15666e-06
-1.66499e-06
-2.10436e-06
-2.45906e-06
-2.71894e-06
-2.88059e-06
-2.94745e-06
-2.92895e-06
-2.83888e-06
-2.69337e-06
-2.5089e-06
-2.30084e-06
-2.08235e-06
-1.86398e-06
-1.65355e-06
-1.45644e-06
-1.27591e-06
-1.11351e-06
-9.69551e-07
-8.43448e-07
-7.34031e-07
-6.39796e-07
-5.59081e-07
-4.90203e-07
-4.3154e-07
-3.81593e-07
-3.3901e-07
-3.02595e-07
-2.71307e-07
-2.44252e-07
-2.20668e-07
-1.99923e-07
-1.81496e-07
-1.64967e-07
-1.50004e-07
-1.36344e-07
-1.23781e-07
-1.12157e-07
-1.01351e-07
-9.12757e-08
-8.18692e-08
-7.30912e-08
-6.49127e-08
-5.73102e-08
-5.02565e-08
-4.3718e-08
-3.76484e-08
-3.19903e-08
-2.66733e-08
-2.16238e-08
-1.67683e-08
-1.20703e-08
-7.40754e-09
-3.56419e-09
5.55683e-06
5.55241e-06
5.54085e-06
5.52228e-06
5.49657e-06
5.46286e-06
5.41985e-06
5.36587e-06
5.29883e-06
5.2162e-06
5.11503e-06
4.992e-06
4.84339e-06
4.66517e-06
4.45307e-06
4.20277e-06
3.91019e-06
3.57185e-06
3.18526e-06
2.7495e-06
2.2658e-06
1.73822e-06
1.1742e-06
5.84993e-07
-1.43827e-08
-6.05593e-07
-1.16806e-06
-1.68057e-06
-2.12333e-06
-2.48022e-06
-2.74087e-06
-2.9018e-06
-2.96664e-06
-2.94518e-06
-2.85162e-06
-2.7025e-06
-2.51466e-06
-2.30367e-06
-2.08282e-06
-1.86266e-06
-1.65099e-06
-1.4531e-06
-1.27215e-06
-1.10963e-06
-9.65757e-07
-8.39871e-07
-7.30751e-07
-6.36854e-07
-5.56487e-07
-4.87946e-07
-4.29599e-07
-3.79938e-07
-3.3761e-07
-3.01419e-07
-2.70327e-07
-2.4344e-07
-2.20001e-07
-1.99377e-07
-1.81053e-07
-1.64611e-07
-1.49721e-07
-1.36124e-07
-1.23616e-07
-1.12038e-07
-1.0127e-07
-9.12251e-08
-8.18417e-08
-7.30801e-08
-6.4912e-08
-5.73152e-08
-5.02637e-08
-4.37249e-08
-3.76538e-08
-3.19938e-08
-2.66759e-08
-2.16268e-08
-1.67734e-08
-1.20753e-08
-7.41534e-09
-3.56963e-09
5.55938e-06
5.55504e-06
5.54371e-06
5.52548e-06
5.50022e-06
5.46709e-06
5.42482e-06
5.37175e-06
5.30579e-06
5.22442e-06
5.12471e-06
5.0033e-06
4.85644e-06
4.68005e-06
4.46979e-06
4.22123e-06
3.93013e-06
3.59278e-06
3.20647e-06
2.77e-06
2.28433e-06
1.75331e-06
1.18425e-06
5.8841e-07
-1.89634e-08
-6.19059e-07
-1.19059e-06
-1.71145e-06
-2.16095e-06
-2.52221e-06
-2.78436e-06
-2.94386e-06
-3.00469e-06
-2.97733e-06
-2.87683e-06
-2.72056e-06
-2.52604e-06
-2.30926e-06
-2.08372e-06
-1.86003e-06
-1.6459e-06
-1.44647e-06
-1.26473e-06
-1.10198e-06
-9.58268e-07
-8.32814e-07
-7.24286e-07
-6.31058e-07
-5.5138e-07
-4.83507e-07
-4.25782e-07
-3.76685e-07
-3.34857e-07
-2.99106e-07
-2.68395e-07
-2.41836e-07
-2.18675e-07
-1.98285e-07
-1.80156e-07
-1.63878e-07
-1.49128e-07
-1.3565e-07
-1.23243e-07
-1.11753e-07
-1.01058e-07
-9.10733e-08
-8.17369e-08
-7.30108e-08
-6.48683e-08
-5.72894e-08
-5.02498e-08
-4.37185e-08
-3.76517e-08
-3.19937e-08
-2.66767e-08
-2.16283e-08
-1.67758e-08
-1.20767e-08
-7.41512e-09
-3.52486e-09
5.56312e-06
5.55891e-06
5.54789e-06
5.53016e-06
5.50558e-06
5.47333e-06
5.43216e-06
5.38042e-06
5.31606e-06
5.23657e-06
5.139e-06
5.01998e-06
4.87572e-06
4.70206e-06
4.49454e-06
4.24858e-06
3.95969e-06
3.62387e-06
3.23803e-06
2.80057e-06
2.31206e-06
1.77598e-06
1.19946e-06
5.9375e-07
-2.55503e-08
-6.38933e-07
-1.22404e-06
-1.75744e-06
-2.21707e-06
-2.58488e-06
-2.84925e-06
-3.00655e-06
-3.06131e-06
-3.02504e-06
-2.91413e-06
-2.74717e-06
-2.54268e-06
-2.31729e-06
-2.08483e-06
-1.85594e-06
-1.63821e-06
-1.43654e-06
-1.25366e-06
-1.09059e-06
-9.47159e-07
-8.22366e-07
-7.14729e-07
-6.22502e-07
-5.43848e-07
-4.76965e-07
-4.20158e-07
-3.71892e-07
-3.30802e-07
-2.95697e-07
-2.65546e-07
-2.39466e-07
-2.16709e-07
-1.9666e-07
-1.78815e-07
-1.62775e-07
-1.48227e-07
-1.34923e-07
-1.22667e-07
-1.11306e-07
-1.00721e-07
-9.08264e-08
-8.15628e-08
-7.28937e-08
-6.4795e-08
-5.72491e-08
-5.02339e-08
-4.37203e-08
-3.76654e-08
-3.20146e-08
-2.6701e-08
-2.1654e-08
-1.68021e-08
-1.21018e-08
-7.43704e-09
-3.4998e-09
5.56796e-06
5.5639e-06
5.55329e-06
5.53621e-06
5.51252e-06
5.48141e-06
5.44167e-06
5.39169e-06
5.32941e-06
5.25236e-06
5.15758e-06
5.04167e-06
4.90081e-06
4.73072e-06
4.52682e-06
4.2843e-06
3.99836e-06
3.66461e-06
3.27948e-06
2.84083e-06
2.34869e-06
1.80608e-06
1.21982e-06
6.01176e-07
-3.3842e-08
-6.64801e-07
-1.26792e-06
-1.81801e-06
-2.29113e-06
-2.66763e-06
-2.93491e-06
-3.08919e-06
-3.13577e-06
-3.08761e-06
-2.96284e-06
-2.78172e-06
-2.56409e-06
-2.32742e-06
-2.08593e-06
-1.85029e-06
-1.62792e-06
-1.4234e-06
-1.23909e-06
-1.07567e-06
-9.32632e-07
-8.08736e-07
-7.02284e-07
-6.11376e-07
-5.34066e-07
-4.68476e-07
-4.12867e-07
-3.65681e-07
-3.25549e-07
-2.91281e-07
-2.61854e-07
-2.36392e-07
-2.14158e-07
-1.94546e-07
-1.77066e-07
-1.61334e-07
-1.47047e-07
-1.33968e-07
-1.21907e-07
-1.10715e-07
-1.00273e-07
-9.04973e-08
-8.13302e-08
-7.27378e-08
-6.46993e-08
-5.72002e-08
-5.0221e-08
-4.37342e-08
-3.76978e-08
-3.20582e-08
-2.67496e-08
-2.17033e-08
-1.68496e-08
-1.21452e-08
-7.47216e-09
-3.48841e-09
5.57377e-06
5.56991e-06
5.55979e-06
5.54349e-06
5.52087e-06
5.49116e-06
5.45315e-06
5.40528e-06
5.34553e-06
5.27143e-06
5.18003e-06
5.06792e-06
4.93119e-06
4.76549e-06
4.56604e-06
4.32776e-06
4.04551e-06
3.71441e-06
3.33028e-06
2.89033e-06
2.39392e-06
1.84346e-06
1.24538e-06
6.10918e-07
-4.34328e-08
-6.96118e-07
-1.32161e-06
-1.89248e-06
-2.38242e-06
-2.76974e-06
-3.04057e-06
-3.19099e-06
-3.22725e-06
-3.16418e-06
-3.02213e-06
-2.82348e-06
-2.58968e-06
-2.33921e-06
-2.08673e-06
-1.84295e-06
-1.61502e-06
-1.40713e-06
-1.22117e-06
-1.0574e-06
-9.14912e-07
-7.92152e-07
-6.87174e-07
-5.97892e-07
-5.22228e-07
-4.58214e-07
-4.04061e-07
-3.58185e-07
-3.19211e-07
-2.85956e-07
-2.57403e-07
-2.32687e-07
-2.11082e-07
-1.91995e-07
-1.74954e-07
-1.59592e-07
-1.45619e-07
-1.32812e-07
-1.20987e-07
-1.09998e-07
-9.97283e-08
-9.00962e-08
-8.10457e-08
-7.25468e-08
-6.45824e-08
-5.7142e-08
-5.02087e-08
-4.37566e-08
-3.77445e-08
-3.21194e-08
-2.6817e-08
-2.17702e-08
-1.6912e-08
-1.21996e-08
-7.51343e-09
-3.48616e-09
5.58043e-06
5.57678e-06
5.56723e-06
5.55183e-06
5.53044e-06
5.50232e-06
5.46631e-06
5.42088e-06
5.36404e-06
5.29334e-06
5.20586e-06
5.09814e-06
4.96623e-06
4.80565e-06
4.61142e-06
4.37816e-06
4.10031e-06
3.77242e-06
3.38965e-06
2.94842e-06
2.44725e-06
1.88784e-06
1.2761e-06
6.2319e-07
-5.38634e-08
-7.32212e-07
-1.38425e-06
-1.97988e-06
-2.48991e-06
-2.89013e-06
-3.16512e-06
-3.31075e-06
-3.33452e-06
-3.25355e-06
-3.0909e-06
-2.87149e-06
-2.61867e-06
-2.3521e-06
-2.0869e-06
-1.83377e-06
-1.59953e-06
-1.38786e-06
-1.20013e-06
-1.03606e-06
-8.94299e-07
-7.72921e-07
-6.69696e-07
-5.82328e-07
-5.08587e-07
-4.46407e-07
-3.9394e-07
-3.49578e-07
-3.11941e-07
-2.79853e-07
-2.52305e-07
-2.28446e-07
-2.07562e-07
-1.89077e-07
-1.72539e-07
-1.57599e-07
-1.43987e-07
-1.31491e-07
-1.19935e-07
-1.09178e-07
-9.91055e-08
-8.96362e-08
-8.07181e-08
-7.23254e-08
-6.4446e-08
-5.70733e-08
-5.01938e-08
-4.37829e-08
-3.78e-08
-3.21925e-08
-2.6897e-08
-2.18487e-08
-1.69831e-08
-1.2259e-08
-7.55596e-09
-3.48807e-09
5.58776e-06
5.58435e-06
5.57542e-06
5.56102e-06
5.54099e-06
5.51464e-06
5.48085e-06
5.43812e-06
5.38451e-06
5.31761e-06
5.23448e-06
5.13168e-06
5.00518e-06
4.85036e-06
4.66204e-06
4.43451e-06
4.16174e-06
3.83766e-06
3.45665e-06
3.01424e-06
2.50802e-06
1.93879e-06
1.31184e-06
6.38184e-07
-6.46156e-08
-7.72269e-07
-1.4548e-06
-2.07898e-06
-2.61224e-06
-3.02735e-06
-3.30703e-06
-3.44693e-06
-3.45606e-06
-3.35426e-06
-3.16783e-06
-2.92464e-06
-2.65023e-06
-2.36553e-06
-2.08614e-06
-1.82268e-06
-1.58155e-06
-1.36584e-06
-1.17629e-06
-1.01202e-06
-8.71177e-07
-7.51424e-07
-6.50215e-07
-5.65022e-07
-4.9345e-07
-4.33326e-07
-3.82743e-07
-3.40068e-07
-3.03918e-07
-2.73125e-07
-2.46693e-07
-2.23782e-07
-2.03695e-07
-1.85875e-07
-1.69889e-07
-1.55413e-07
-1.42198e-07
-1.30044e-07
-1.18785e-07
-1.08282e-07
-9.84238e-08
-8.91311e-08
-8.0356e-08
-7.2078e-08
-6.42908e-08
-5.69925e-08
-5.01727e-08
-4.38083e-08
-3.78587e-08
-3.22715e-08
-2.6984e-08
-2.19336e-08
-1.70585e-08
-1.23197e-08
-7.59682e-09
-3.49055e-09
5.59558e-06
5.59243e-06
5.58417e-06
5.57083e-06
5.55227e-06
5.52782e-06
5.49641e-06
5.45658e-06
5.40646e-06
5.34365e-06
5.26524e-06
5.16777e-06
5.04715e-06
4.89864e-06
4.71682e-06
4.49564e-06
4.22857e-06
3.90886e-06
3.53007e-06
3.08671e-06
2.57532e-06
1.99568e-06
1.35233e-06
6.56012e-07
-7.51612e-08
-8.15358e-07
-1.53196e-06
-2.18822e-06
-2.74763e-06
-3.17948e-06
-3.46432e-06
-3.59756e-06
-3.58993e-06
-3.46451e-06
-3.25136e-06
-2.98168e-06
-2.68344e-06
-2.37891e-06
-2.08417e-06
-1.80965e-06
-1.56125e-06
-1.34137e-06
-1.15004e-06
-9.85718e-07
-8.46005e-07
-7.2811e-07
-6.29154e-07
-5.46362e-07
-4.77165e-07
-4.1928e-07
-3.70739e-07
-3.29886e-07
-2.95339e-07
-2.6594e-07
-2.40709e-07
-2.18817e-07
-1.99583e-07
-1.82471e-07
-1.67074e-07
-1.53093e-07
-1.40299e-07
-1.2851e-07
-1.17566e-07
-1.07332e-07
-9.7699e-08
-8.85909e-08
-7.99644e-08
-7.18057e-08
-6.41148e-08
-5.68953e-08
-5.01398e-08
-4.38264e-08
-3.79141e-08
-3.235e-08
-2.70723e-08
-2.20198e-08
-1.7134e-08
-1.23784e-08
-7.63377e-09
-3.49077e-09
5.6037e-06
5.60082e-06
5.59325e-06
5.58103e-06
5.564e-06
5.54153e-06
5.51261e-06
5.47583e-06
5.42936e-06
5.37084e-06
5.29741e-06
5.20557e-06
5.09119e-06
4.9494e-06
4.77454e-06
4.56022e-06
4.29939e-06
3.98459e-06
3.60848e-06
3.16449e-06
2.648e-06
2.05765e-06
1.39708e-06
6.76667e-07
-8.49862e-08
-8.60439e-07
-1.61422e-06
-2.30566e-06
-2.89384e-06
-3.3441e-06
-3.63448e-06
-3.76011e-06
-3.73375e-06
-3.58219e-06
-3.3397e-06
-3.04123e-06
-2.71734e-06
-2.39171e-06
-2.08078e-06
-1.79477e-06
-1.53892e-06
-1.31488e-06
-1.12189e-06
-9.57707e-07
-8.19329e-07
-7.03501e-07
-6.06997e-07
-5.26785e-07
-4.60121e-07
-4.04609e-07
-3.58221e-07
-3.19283e-07
-2.86419e-07
-2.58483e-07
-2.34506e-07
-2.13677e-07
-1.95331e-07
-1.78954e-07
-1.64167e-07
-1.50698e-07
-1.38341e-07
-1.26929e-07
-1.16311e-07
-1.06354e-07
-9.69507e-08
-8.80293e-08
-7.95525e-08
-7.15137e-08
-6.39206e-08
-5.67823e-08
-5.00945e-08
-4.38358e-08
-3.79646e-08
-3.24269e-08
-2.71609e-08
-2.21072e-08
-1.721e-08
-1.2436e-08
-7.66815e-09
-3.48895e-09
5.61191e-06
5.6093e-06
5.60245e-06
5.59136e-06
5.57588e-06
5.55544e-06
5.52905e-06
5.49539e-06
5.45265e-06
5.39854e-06
5.33021e-06
5.24417e-06
5.13625e-06
5.00143e-06
4.83386e-06
4.62678e-06
4.3726e-06
4.06316e-06
3.69018e-06
3.24596e-06
2.72462e-06
2.12355e-06
1.44537e-06
6.99969e-07
-9.36412e-08
-9.06392e-07
-1.6998e-06
-2.42896e-06
-3.04811e-06
-3.51817e-06
-3.81436e-06
-3.93152e-06
-3.8847e-06
-3.70482e-06
-3.43086e-06
-3.10183e-06
-2.75101e-06
-2.40344e-06
-2.07591e-06
-1.77825e-06
-1.51498e-06
-1.28693e-06
-1.09247e-06
-9.2862e-07
-7.91767e-07
-6.78179e-07
-5.84275e-07
-5.06768e-07
-4.42736e-07
-3.89673e-07
-3.45499e-07
-3.08525e-07
-2.77381e-07
-2.50938e-07
-2.28242e-07
-2.08494e-07
-1.91047e-07
-1.75412e-07
-1.61239e-07
-1.48286e-07
-1.36371e-07
-1.2534e-07
-1.1505e-07
-1.05371e-07
-9.61968e-08
-8.74596e-08
-7.9129e-08
-7.12074e-08
-6.37106e-08
-5.6654e-08
-5.0036e-08
-4.38352e-08
-3.80086e-08
-3.25004e-08
-2.72486e-08
-2.2195e-08
-1.72864e-08
-1.24929e-08
-7.70035e-09
-3.48471e-09
5.62002e-06
5.61768e-06
5.61153e-06
5.60156e-06
5.58763e-06
5.56919e-06
5.54533e-06
5.51477e-06
5.47575e-06
5.42604e-06
5.36283e-06
5.28262e-06
5.18121e-06
5.05346e-06
4.89332e-06
4.69368e-06
4.44643e-06
4.1427e-06
3.77324e-06
3.32922e-06
2.80343e-06
2.19192e-06
1.49619e-06
7.25523e-07
-1.00784e-07
-9.52058e-07
-1.78672e-06
-2.55539e-06
-3.20712e-06
-3.69799e-06
-4.00016e-06
-4.1081e-06
-4.03944e-06
-3.82961e-06
-3.52269e-06
-3.16198e-06
-2.78355e-06
-2.41377e-06
-2.06962e-06
-1.76045e-06
-1.49e-06
-1.25818e-06
-1.06249e-06
-8.99179e-07
-7.64012e-07
-6.52784e-07
-5.61567e-07
-4.86821e-07
-4.25455e-07
-3.74858e-07
-3.32901e-07
-2.97887e-07
-2.6846e-07
-2.43504e-07
-2.22081e-07
-2.03404e-07
-1.86845e-07
-1.71939e-07
-1.58368e-07
-1.45922e-07
-1.34441e-07
-1.23786e-07
-1.1382e-07
-1.04413e-07
-9.5461e-08
-8.69e-08
-7.87081e-08
-7.08972e-08
-6.34925e-08
-5.65156e-08
-4.99677e-08
-4.38268e-08
-3.80475e-08
-3.25717e-08
-2.73365e-08
-2.22843e-08
-1.73647e-08
-1.25508e-08
-7.73216e-09
-3.47907e-09
5.62781e-06
5.62573e-06
5.62027e-06
5.61138e-06
5.59895e-06
5.58245e-06
5.56104e-06
5.53348e-06
5.49809e-06
5.45267e-06
5.39444e-06
5.31995e-06
5.22493e-06
5.10417e-06
4.95141e-06
4.7592e-06
4.51897e-06
4.22113e-06
3.85551e-06
3.41211e-06
2.88239e-06
2.26101e-06
1.54826e-06
7.5268e-07
-1.06223e-07
-9.96278e-07
-1.87281e-06
-2.68185e-06
-3.36699e-06
-3.87923e-06
-4.1874e-06
-4.2856e-06
-4.19419e-06
-3.95348e-06
-3.61291e-06
-3.22019e-06
-2.8142e-06
-2.42249e-06
-2.06213e-06
-1.7419e-06
-1.46468e-06
-1.22944e-06
-1.03278e-06
-8.70182e-07
-7.36807e-07
-6.27992e-07
-5.39471e-07
-4.67468e-07
-4.08729e-07
-3.60546e-07
-3.2075e-07
-2.87642e-07
-2.59881e-07
-2.36369e-07
-2.16179e-07
-1.98536e-07
-1.82828e-07
-1.68619e-07
-1.55624e-07
-1.43661e-07
-1.32597e-07
-1.22305e-07
-1.1265e-07
-1.03503e-07
-9.47613e-08
-8.63648e-08
-7.83004e-08
-7.05911e-08
-6.32716e-08
-5.63704e-08
-4.98911e-08
-4.38106e-08
-3.80803e-08
-3.26393e-08
-2.74228e-08
-2.23739e-08
-1.74438e-08
-1.26092e-08
-7.76349e-09
-3.4718e-09
5.63509e-06
5.63326e-06
5.62843e-06
5.62057e-06
5.60954e-06
5.59488e-06
5.57577e-06
5.55105e-06
5.51908e-06
5.47772e-06
5.42423e-06
5.35517e-06
5.26626e-06
5.1522e-06
5.00655e-06
4.82158e-06
4.58825e-06
4.2963e-06
3.93467e-06
3.49226e-06
2.95919e-06
2.32876e-06
1.59995e-06
7.80527e-07
-1.09956e-07
-1.03795e-06
-1.95577e-06
-2.80488e-06
-3.52336e-06
-4.05692e-06
-4.37096e-06
-4.45919e-06
-4.3448e-06
-4.07315e-06
-3.6992e-06
-3.27507e-06
-2.84231e-06
-2.42957e-06
-2.05384e-06
-1.72328e-06
-1.43987e-06
-1.20161e-06
-1.00423e-06
-8.42486e-07
-7.10943e-07
-6.0451e-07
-5.18613e-07
-4.49251e-07
-3.93021e-07
-3.47131e-07
-3.09378e-07
-2.78069e-07
-2.51879e-07
-2.29727e-07
-2.10697e-07
-1.94023e-07
-1.79109e-07
-1.65546e-07
-1.53082e-07
-1.41568e-07
-1.30892e-07
-1.20938e-07
-1.11574e-07
-1.0267e-07
-9.4121e-08
-8.5873e-08
-7.79219e-08
-7.0302e-08
-6.30585e-08
-5.62265e-08
-4.98119e-08
-4.37902e-08
-3.81091e-08
-3.27042e-08
-2.75082e-08
-2.24641e-08
-1.75246e-08
-1.26693e-08
-7.79583e-09
-3.46425e-09
5.64168e-06
5.64007e-06
5.63583e-06
5.62889e-06
5.61915e-06
5.60615e-06
5.58915e-06
5.56702e-06
5.53818e-06
5.50054e-06
5.45141e-06
5.38735e-06
5.30408e-06
5.19624e-06
5.05722e-06
4.87904e-06
4.65224e-06
4.36596e-06
4.00832e-06
3.56716e-06
3.03137e-06
2.39287e-06
1.64941e-06
8.07892e-07
-1.12185e-07
-1.07606e-06
-2.03325e-06
-2.92084e-06
-3.67147e-06
-4.22561e-06
-4.54522e-06
-4.62359e-06
-4.48678e-06
-4.18521e-06
-3.77924e-06
-3.3253e-06
-2.86743e-06
-2.43515e-06
-2.04532e-06
-1.70541e-06
-1.41649e-06
-1.17565e-06
-9.77796e-07
-8.16965e-07
-6.87206e-07
-5.83035e-07
-4.99594e-07
-4.32684e-07
-3.78768e-07
-3.34978e-07
-2.9909e-07
-2.69419e-07
-2.4466e-07
-2.23748e-07
-2.05773e-07
-1.89977e-07
-1.75778e-07
-1.62794e-07
-1.50804e-07
-1.39691e-07
-1.29364e-07
-1.19716e-07
-1.10616e-07
-1.0193e-07
-9.35536e-08
-8.54357e-08
-7.75819e-08
-7.00379e-08
-6.28594e-08
-5.60884e-08
-4.97328e-08
-4.37663e-08
-3.81329e-08
-3.27639e-08
-2.75894e-08
-2.25514e-08
-1.76038e-08
-1.27285e-08
-7.82737e-09
-3.45526e-09
5.6474e-06
5.64599e-06
5.64225e-06
5.63613e-06
5.62751e-06
5.61598e-06
5.60083e-06
5.58097e-06
5.55489e-06
5.52053e-06
5.47523e-06
5.4156e-06
5.33734e-06
5.23503e-06
5.10194e-06
4.92987e-06
4.70899e-06
4.42792e-06
4.07405e-06
3.63427e-06
3.09634e-06
2.45093e-06
1.69461e-06
8.33402e-07
-1.13313e-07
-1.10977e-06
-2.10298e-06
-3.02598e-06
-3.80633e-06
-4.37955e-06
-4.70425e-06
-4.77332e-06
-4.61557e-06
-4.28625e-06
-3.85086e-06
-3.36978e-06
-2.88927e-06
-2.43956e-06
-2.03728e-06
-1.6892e-06
-1.39556e-06
-1.15258e-06
-9.54426e-07
-7.945e-07
-6.66385e-07
-5.64254e-07
-4.83008e-07
-4.18274e-07
-3.66396e-07
-3.24448e-07
-2.90188e-07
-2.61944e-07
-2.38433e-07
-2.18603e-07
-2.01548e-07
-1.86513e-07
-1.72932e-07
-1.60443e-07
-1.48858e-07
-1.38087e-07
-1.28059e-07
-1.18676e-07
-1.09806e-07
-1.01309e-07
-9.30791e-08
-8.50704e-08
-7.72962e-08
-6.98136e-08
-6.2688e-08
-5.5968e-08
-4.96636e-08
-4.37465e-08
-3.81569e-08
-3.2822e-08
-2.76687e-08
-2.26376e-08
-1.7683e-08
-1.27887e-08
-7.86047e-09
-3.44727e-09
5.65211e-06
5.65086e-06
5.64755e-06
5.64211e-06
5.63442e-06
5.62411e-06
5.6105e-06
5.59254e-06
5.56875e-06
5.53713e-06
5.49505e-06
5.43914e-06
5.36508e-06
5.26743e-06
5.13937e-06
4.97249e-06
4.75667e-06
4.48011e-06
4.12956e-06
3.69114e-06
3.15159e-06
2.50052e-06
1.73344e-06
8.55568e-07
-1.13899e-07
-1.13839e-06
-2.1628e-06
-3.11666e-06
-3.92302e-06
-4.51296e-06
-4.84208e-06
-4.90289e-06
-4.72667e-06
-4.37303e-06
-3.91205e-06
-3.40756e-06
-2.9077e-06
-2.44321e-06
-2.03047e-06
-1.67559e-06
-1.37806e-06
-1.13337e-06
-9.35023e-07
-7.759e-07
-6.49188e-07
-5.4878e-07
-4.69374e-07
-4.06454e-07
-3.56268e-07
-3.15839e-07
-2.82917e-07
-2.55846e-07
-2.33361e-07
-2.14422e-07
-1.98124e-07
-1.83715e-07
-1.70636e-07
-1.58547e-07
-1.47287e-07
-1.36791e-07
-1.27005e-07
-1.17839e-07
-1.09155e-07
-1.00813e-07
-9.27026e-08
-8.47806e-08
-7.70685e-08
-6.96326e-08
-6.25479e-08
-5.58682e-08
-4.96057e-08
-4.37304e-08
-3.81788e-08
-3.28743e-08
-2.77405e-08
-2.27162e-08
-1.77556e-08
-1.28437e-08
-7.88984e-09
-3.43664e-09
5.65568e-06
5.65456e-06
5.65158e-06
5.64666e-06
5.63969e-06
5.63032e-06
5.61789e-06
5.6014e-06
5.57939e-06
5.54989e-06
5.5103e-06
5.45727e-06
5.38649e-06
5.29247e-06
5.16833e-06
5.00552e-06
4.7937e-06
4.52071e-06
4.17284e-06
3.73555e-06
3.19483e-06
2.53941e-06
1.76391e-06
8.72918e-07
-1.14585e-07
-1.16143e-06
-2.21086e-06
-3.18956e-06
-4.01695e-06
-4.62043e-06
-4.95311e-06
-5.00717e-06
-4.81595e-06
-4.44265e-06
-3.96111e-06
-3.43795e-06
-2.92274e-06
-2.44661e-06
-2.02566e-06
-1.66548e-06
-1.36492e-06
-1.11891e-06
-9.20411e-07
-7.61901e-07
-6.3626e-07
-5.37166e-07
-4.59162e-07
-3.97619e-07
-3.48713e-07
-3.09429e-07
-2.77512e-07
-2.51321e-07
-2.29607e-07
-2.11338e-07
-1.9561e-07
-1.81669e-07
-1.68964e-07
-1.5717e-07
-1.46147e-07
-1.35852e-07
-1.26245e-07
-1.17238e-07
-1.08694e-07
-1.00467e-07
-9.24446e-08
-8.45857e-08
-7.69175e-08
-6.95143e-08
-6.2458e-08
-5.58076e-08
-4.95763e-08
-4.37332e-08
-3.82116e-08
-3.29315e-08
-2.78136e-08
-2.27945e-08
-1.78279e-08
-1.28994e-08
-7.92124e-09
-3.42854e-09
5.65803e-06
5.65699e-06
5.65423e-06
5.64966e-06
5.64318e-06
5.63444e-06
5.62282e-06
5.60732e-06
5.58652e-06
5.55845e-06
5.52055e-06
5.46948e-06
5.40092e-06
5.30938e-06
5.18791e-06
5.02788e-06
4.81879e-06
4.54824e-06
4.2022e-06
3.76568e-06
3.22414e-06
2.56568e-06
1.78432e-06
8.84154e-07
-1.15992e-07
-1.17856e-06
-2.24563e-06
-3.24191e-06
-4.08423e-06
-4.69733e-06
-5.03253e-06
-5.08178e-06
-4.8799e-06
-4.4927e-06
-3.99667e-06
-3.4604e-06
-2.93446e-06
-2.45021e-06
-2.02352e-06
-1.65961e-06
-1.35691e-06
-1.10992e-06
-9.11241e-07
-7.53075e-07
-6.28094e-07
-5.29829e-07
-4.52716e-07
-3.92054e-07
-3.43964e-07
-3.05407e-07
-2.74126e-07
-2.4849e-07
-2.27264e-07
-2.09421e-07
-1.94057e-07
-1.80413e-07
-1.67943e-07
-1.56331e-07
-1.45453e-07
-1.3528e-07
-1.25782e-07
-1.16874e-07
-1.08417e-07
-1.00262e-07
-9.22951e-08
-8.44753e-08
-7.68339e-08
-6.94504e-08
-6.24117e-08
-5.57797e-08
-4.95691e-08
-4.37476e-08
-3.82469e-08
-3.2984e-08
-2.78771e-08
-2.28608e-08
-1.78879e-08
-1.29441e-08
-7.94403e-09
-3.41523e-09
5.65908e-06
5.65808e-06
5.65543e-06
5.65103e-06
5.64479e-06
5.63637e-06
5.62515e-06
5.61014e-06
5.58992e-06
5.56256e-06
5.5255e-06
5.47539e-06
5.40793e-06
5.31761e-06
5.19746e-06
5.0388e-06
4.83104e-06
4.56166e-06
4.21646e-06
3.78023e-06
3.23814e-06
2.57797e-06
1.79341e-06
8.88308e-07
-1.18604e-07
-1.18956e-06
-2.26604e-06
-3.2717e-06
-4.12197e-06
-4.74022e-06
-5.07678e-06
-5.12348e-06
-4.91597e-06
-4.52142e-06
-4.01775e-06
-3.47457e-06
-2.94294e-06
-2.45435e-06
-2.02455e-06
-1.65856e-06
-1.35458e-06
-1.10692e-06
-9.07986e-07
-7.49842e-07
-6.25054e-07
-5.27079e-07
-4.50302e-07
-3.89979e-07
-3.42207e-07
-3.03931e-07
-2.72895e-07
-2.47472e-07
-2.26435e-07
-2.08759e-07
-1.93537e-07
-1.8001e-07
-1.67628e-07
-1.56082e-07
-1.45254e-07
-1.35122e-07
-1.25659e-07
-1.16785e-07
-1.0836e-07
-1.00231e-07
-9.22838e-08
-8.44782e-08
-7.68463e-08
-6.94698e-08
-6.24376e-08
-5.58131e-08
-4.96112e-08
-4.37995e-08
-3.83082e-08
-3.30528e-08
-2.79497e-08
-2.29317e-08
-1.79502e-08
-1.29911e-08
-7.97024e-09
-3.40656e-09
5.6588e-06
5.6578e-06
5.65514e-06
5.65074e-06
5.64448e-06
5.63604e-06
5.6248e-06
5.60976e-06
5.58951e-06
5.56211e-06
5.52499e-06
5.47482e-06
5.40729e-06
5.3169e-06
5.19665e-06
5.03787e-06
4.82997e-06
4.56043e-06
4.21502e-06
3.77853e-06
3.23612e-06
2.57556e-06
1.79053e-06
8.84879e-07
-1.2266e-07
-1.1943e-06
-2.27147e-06
-3.27778e-06
-4.12859e-06
-4.74718e-06
-5.08386e-06
-5.13047e-06
-4.92271e-06
-4.52783e-06
-4.0238e-06
-3.48023e-06
-2.9482e-06
-2.45918e-06
-2.02897e-06
-1.66256e-06
-1.35819e-06
-1.11015e-06
-9.10859e-07
-7.52386e-07
-6.27294e-07
-5.29043e-07
-4.52017e-07
-3.91472e-07
-3.43499e-07
-3.05043e-07
-2.73845e-07
-2.48281e-07
-2.27123e-07
-2.09345e-07
-1.94038e-07
-1.80439e-07
-1.67997e-07
-1.56398e-07
-1.45522e-07
-1.35347e-07
-1.25848e-07
-1.16942e-07
-1.0849e-07
-1.00342e-07
-9.23804e-08
-8.45653e-08
-7.69274e-08
-6.95472e-08
-6.25126e-08
-5.58862e-08
-4.96827e-08
-4.38695e-08
-3.83768e-08
-3.31195e-08
-2.80129e-08
-2.29885e-08
-1.79967e-08
-1.30226e-08
-7.98367e-09
-3.39031e-09
5.6572e-06
5.65616e-06
5.65337e-06
5.64878e-06
5.64225e-06
5.63346e-06
5.62177e-06
5.60619e-06
5.58527e-06
5.55708e-06
5.51903e-06
5.46778e-06
5.39901e-06
5.30723e-06
5.18548e-06
5.02511e-06
4.8156e-06
4.54455e-06
4.19788e-06
3.76059e-06
3.21809e-06
2.55847e-06
1.77571e-06
8.73908e-07
-1.28102e-07
-1.19269e-06
-2.26183e-06
-3.26004e-06
-4.10392e-06
-4.71804e-06
-5.0536e-06
-5.10259e-06
-4.9e-06
-4.51183e-06
-4.01472e-06
-3.4773e-06
-2.95015e-06
-2.46466e-06
-2.03672e-06
-1.67158e-06
-1.3677e-06
-1.11958e-06
-9.19846e-07
-7.60698e-07
-6.34813e-07
-5.35725e-07
-4.57873e-07
-3.96547e-07
-3.4786e-07
-3.08767e-07
-2.77008e-07
-2.50952e-07
-2.29364e-07
-2.11216e-07
-1.95597e-07
-1.81741e-07
-1.69089e-07
-1.5732e-07
-1.46301e-07
-1.36002e-07
-1.26392e-07
-1.17388e-07
-1.08853e-07
-1.00638e-07
-9.26275e-08
-8.47784e-08
-7.7118e-08
-6.97225e-08
-6.26756e-08
-5.60369e-08
-4.98199e-08
-4.39924e-08
-3.84855e-08
-3.32146e-08
-2.80949e-08
-2.3057e-08
-1.80505e-08
-1.30598e-08
-8.00305e-09
-3.38111e-09
5.6543e-06
5.65317e-06
5.65016e-06
5.64519e-06
5.63815e-06
5.62869e-06
5.61615e-06
5.59951e-06
5.57733e-06
5.54761e-06
5.50777e-06
5.45444e-06
5.38332e-06
5.2889e-06
5.16428e-06
5.0009e-06
4.78839e-06
4.51456e-06
4.16565e-06
3.72707e-06
3.18478e-06
2.52744e-06
1.74965e-06
8.55971e-07
-1.34576e-07
-1.18472e-06
-2.23749e-06
-3.21931e-06
-4.04925e-06
-4.65439e-06
-4.98766e-06
-5.04132e-06
-4.84898e-06
-4.47414e-06
-3.99084e-06
-3.46581e-06
-2.94863e-06
-2.47046e-06
-2.04746e-06
-1.68525e-06
-1.38276e-06
-1.13489e-06
-9.34649e-07
-7.74516e-07
-6.47382e-07
-5.46928e-07
-4.67697e-07
-4.05053e-07
-3.55157e-07
-3.14984e-07
-2.82273e-07
-2.55382e-07
-2.33064e-07
-2.14286e-07
-1.98134e-07
-1.83839e-07
-1.70832e-07
-1.58777e-07
-1.47521e-07
-1.37019e-07
-1.27228e-07
-1.18065e-07
-1.09394e-07
-1.01069e-07
-9.29772e-08
-8.50723e-08
-7.73756e-08
-6.99555e-08
-6.28885e-08
-5.62293e-08
-4.99895e-08
-4.41373e-08
-3.86056e-08
-3.33113e-08
-2.81702e-08
-2.31132e-08
-1.80888e-08
-1.30812e-08
-8.00876e-09
-3.3639e-09
5.65019e-06
5.64893e-06
5.64557e-06
5.64006e-06
5.63228e-06
5.62184e-06
5.60807e-06
5.58991e-06
5.56587e-06
5.53395e-06
5.49152e-06
5.43519e-06
5.36065e-06
5.26244e-06
5.1337e-06
4.96603e-06
4.74925e-06
4.47151e-06
4.11952e-06
3.67931e-06
3.13759e-06
2.48388e-06
1.71365e-06
8.3211e-07
-1.41491e-07
-1.17044e-06
-2.19936e-06
-3.15741e-06
-3.96719e-06
-4.55936e-06
-4.88932e-06
-4.94965e-06
-4.77198e-06
-4.4163e-06
-3.95296e-06
-3.44594e-06
-2.94339e-06
-2.47613e-06
-2.06058e-06
-1.70294e-06
-1.40273e-06
-1.15551e-06
-9.54762e-07
-7.93404e-07
-6.64631e-07
-5.62344e-07
-4.81241e-07
-4.16795e-07
-3.65237e-07
-3.23576e-07
-2.89553e-07
-2.6151e-07
-2.38185e-07
-2.18535e-07
-2.01644e-07
-1.86741e-07
-1.73243e-07
-1.60793e-07
-1.49212e-07
-1.3843e-07
-1.28394e-07
-1.19013e-07
-1.10155e-07
-1.01681e-07
-9.34765e-08
-8.54938e-08
-7.77456e-08
-7.02897e-08
-6.31929e-08
-5.65033e-08
-5.02297e-08
-4.4341e-08
-3.87723e-08
-3.34431e-08
-2.82709e-08
-2.31869e-08
-1.81395e-08
-1.31122e-08
-8.02324e-09
-3.35572e-09
5.64495e-06
5.64352e-06
5.63973e-06
5.63352e-06
5.62478e-06
5.61309e-06
5.59773e-06
5.57761e-06
5.55121e-06
5.51646e-06
5.47071e-06
5.41056e-06
5.33167e-06
5.22863e-06
5.09468e-06
4.92158e-06
4.69946e-06
4.41688e-06
4.06117e-06
3.61913e-06
3.07845e-06
2.42972e-06
1.66946e-06
8.03694e-07
-1.48132e-07
-1.15006e-06
-2.1488e-06
-3.0769e-06
-3.86142e-06
-4.43739e-06
-4.76317e-06
-4.83175e-06
-4.6723e-06
-4.34054e-06
-3.90228e-06
-3.41807e-06
-2.93424e-06
-2.48108e-06
-2.07531e-06
-1.72378e-06
-1.42679e-06
-1.18063e-06
-9.79463e-07
-8.16723e-07
-6.86005e-07
-5.81496e-07
-4.98098e-07
-4.31426e-07
-3.77806e-07
-3.3429e-07
-2.98627e-07
-2.69143e-07
-2.44558e-07
-2.23817e-07
-2.06001e-07
-1.90333e-07
-1.76218e-07
-1.6327e-07
-1.5128e-07
-1.4015e-07
-1.29808e-07
-1.20159e-07
-1.11073e-07
-1.02414e-07
-9.40714e-08
-8.59924e-08
-7.81798e-08
-7.06788e-08
-6.35444e-08
-5.68168e-08
-5.05013e-08
-4.45673e-08
-3.89528e-08
-3.35803e-08
-2.83696e-08
-2.32532e-08
-1.81796e-08
-1.31315e-08
-8.02711e-09
-3.34142e-09
5.63871e-06
5.63708e-06
5.63277e-06
5.62573e-06
5.61584e-06
5.60265e-06
5.5854e-06
5.56295e-06
5.53372e-06
5.49561e-06
5.44592e-06
5.38122e-06
5.29718e-06
5.18845e-06
5.04838e-06
4.86894e-06
4.64063e-06
4.35252e-06
3.99265e-06
3.54878e-06
3.00969e-06
2.36724e-06
1.61913e-06
7.72257e-07
-1.53779e-07
-1.124e-06
-2.08755e-06
-2.981e-06
-3.7364e-06
-4.29373e-06
-4.61466e-06
-4.69258e-06
-4.55393e-06
-4.24962e-06
-3.84038e-06
-3.38281e-06
-2.92107e-06
-2.48475e-06
-2.09081e-06
-1.74683e-06
-1.45396e-06
-1.20934e-06
-1.0079e-06
-8.43716e-07
-7.10848e-07
-6.03829e-07
-5.17804e-07
-4.48565e-07
-3.92551e-07
-3.46873e-07
-3.09292e-07
-2.78122e-07
-2.52061e-07
-2.30043e-07
-2.11142e-07
-1.94576e-07
-1.79732e-07
-1.66195e-07
-1.53722e-07
-1.42183e-07
-1.31485e-07
-1.21524e-07
-1.12173e-07
-1.03301e-07
-9.47976e-08
-8.66047e-08
-7.87142e-08
-7.11573e-08
-6.39759e-08
-5.72012e-08
-5.08347e-08
-4.48462e-08
-3.91766e-08
-3.37519e-08
-2.8495e-08
-2.33397e-08
-1.82351e-08
-1.31633e-08
-8.04172e-09
-3.33694e-09
5.63162e-06
5.62977e-06
5.62486e-06
5.61687e-06
5.60567e-06
5.59078e-06
5.57138e-06
5.54628e-06
5.51385e-06
5.47194e-06
5.4178e-06
5.34797e-06
5.25816e-06
5.14304e-06
4.99615e-06
4.8097e-06
4.57459e-06
4.2805e-06
3.91627e-06
3.47071e-06
2.93385e-06
2.29889e-06
1.5648e-06
7.39338e-07
-1.57812e-07
-1.09285e-06
-2.01769e-06
-2.87325e-06
-3.59699e-06
-4.13409e-06
-4.44968e-06
-4.53755e-06
-4.42127e-06
-4.1467e-06
-3.76916e-06
-3.341e-06
-2.90392e-06
-2.48662e-06
-2.10626e-06
-1.77108e-06
-1.48317e-06
-1.24059e-06
-1.03912e-06
-8.73524e-07
-7.38404e-07
-6.28684e-07
-5.39796e-07
-4.67732e-07
-4.09066e-07
-3.6098e-07
-3.21256e-07
-2.88198e-07
-2.60485e-07
-2.37035e-07
-2.16917e-07
-1.99338e-07
-1.83669e-07
-1.69464e-07
-1.56444e-07
-1.44443e-07
-1.33345e-07
-1.23039e-07
-1.13396e-07
-1.04288e-07
-9.56061e-08
-8.7285e-08
-7.93051e-08
-7.16827e-08
-6.44464e-08
-5.76178e-08
-5.11939e-08
-4.51448e-08
-3.94141e-08
-3.39317e-08
-2.86235e-08
-2.34253e-08
-1.8287e-08
-1.31901e-08
-8.0512e-09
-3.32961e-09
5.62386e-06
5.62175e-06
5.61619e-06
5.60717e-06
5.59454e-06
5.57778e-06
5.55603e-06
5.52805e-06
5.49213e-06
5.44607e-06
5.3871e-06
5.31172e-06
5.21566e-06
5.09368e-06
4.93948e-06
4.74558e-06
4.50331e-06
4.20303e-06
3.83445e-06
3.3875e-06
2.85353e-06
2.22713e-06
1.50854e-06
7.06353e-07
-1.59789e-07
-1.05744e-06
-1.94148e-06
-2.75739e-06
-3.44815e-06
-3.96422e-06
-4.27416e-06
-4.37214e-06
-4.27887e-06
-4.03514e-06
-3.69077e-06
-3.29372e-06
-2.88302e-06
-2.48635e-06
-2.1209e-06
-1.79559e-06
-1.5134e-06
-1.27337e-06
-1.07215e-06
-9.05252e-07
-7.67872e-07
-6.55365e-07
-5.63477e-07
-4.88423e-07
-4.26928e-07
-3.76258e-07
-3.34228e-07
-2.99134e-07
-2.69638e-07
-2.44643e-07
-2.23208e-07
-2.0453e-07
-1.87961e-07
-1.73025e-07
-1.59405e-07
-1.46901e-07
-1.35374e-07
-1.24699e-07
-1.14745e-07
-1.05385e-07
-9.65108e-08
-8.80493e-08
-7.99691e-08
-7.2272e-08
-6.49727e-08
-5.80833e-08
-5.15961e-08
-4.5481e-08
-3.96841e-08
-3.41391e-08
-2.8775e-08
-2.35301e-08
-1.83548e-08
-1.32303e-08
-8.07167e-09
-3.33137e-09
5.61561e-06
5.61323e-06
5.60699e-06
5.59686e-06
5.58271e-06
5.56398e-06
5.53974e-06
5.5087e-06
5.46909e-06
5.41867e-06
5.3546e-06
5.2734e-06
5.1708e-06
5.04169e-06
4.87992e-06
4.67836e-06
4.42883e-06
4.12237e-06
3.74963e-06
3.30169e-06
2.77124e-06
2.15427e-06
1.45224e-06
6.745e-07
-1.59487e-07
-1.01876e-06
-1.86128e-06
-2.63711e-06
-3.2947e-06
-3.78962e-06
-4.09376e-06
-4.20163e-06
-4.13119e-06
-3.91832e-06
-3.60749e-06
-3.24223e-06
-2.85883e-06
-2.48376e-06
-2.13415e-06
-1.81951e-06
-1.54368e-06
-1.30666e-06
-1.106e-06
-9.37993e-07
-7.98435e-07
-6.83148e-07
-5.88216e-07
-5.10095e-07
-4.45674e-07
-3.92317e-07
-3.47876e-07
-3.1065e-07
-2.79286e-07
-2.5267e-07
-2.29851e-07
-2.10013e-07
-1.9249e-07
-1.76775e-07
-1.62517e-07
-1.49482e-07
-1.37504e-07
-1.26444e-07
-1.16168e-07
-1.06548e-07
-9.74715e-08
-8.88604e-08
-8.06712e-08
-7.28915e-08
-6.5523e-08
-5.8568e-08