/*--------------------------------*- C++ -*----------------------------------*\
| =========                 |                                                 |
| \\      /  F ield         | OpenFOAM: The Open Source CFD Toolbox           |
|  \\    /   O peration     | Version:  2512                                  |
|   \\  /    A nd           | Website:  www.openfoam.com                      |
|    \\/     M anipulation  |                                                 |
\*---------------------------------------------------------------------------*/
FoamFile
{
    version     2.0;
    format      ascii;
    arch        "LSB;label=32;scalar=64";
    class       volScalarField;
    location    "100";
    object      p;
}
// * * * * * * * * * * * * * * * * * * * * * * * * * * * * * * * * * * * * * //

dimensions      [0 2 -2 0 0 0 0];

internalField   nonuniform List<scalar> 
335663
(
0.000198364
0.000198131
0.000197535
0.000196578
0.000195244
0.00019348
0.00019121
0.000188347
0.000184787
0.00018041
0.000175073
0.000168618
0.000160868
0.000151633
0.000140718
0.000127932
0.000113103
9.60951e-05
7.68371e-05
5.53488e-05
3.17733e-05
6.40583e-06
-2.02839e-05
-4.76425e-05
-7.48432e-05
-0.000100923
-0.00012485
-0.00014561
-0.000162325
-0.000174349
-0.000181354
-0.000183367
-0.000180759
-0.000174174
-0.00016444
-0.000152452
-0.000139082
-0.000125103
-0.000111148
-9.77011e-05
-8.50998e-05
-7.35545e-05
-6.31709e-05
-5.3975e-05
-4.59355e-05
-3.89832e-05
-3.30266e-05
-2.7963e-05
-2.36868e-05
-2.00948e-05
-1.709e-05
-1.4584e-05
-1.24978e-05
-1.07628e-05
-9.31958e-06
-8.11746e-06
-7.11333e-06
-6.27064e-06
-5.55877e-06
-4.95227e-06
-4.43049e-06
-3.97674e-06
-3.57778e-06
-3.22293e-06
-2.90363e-06
-2.61284e-06
-2.34487e-06
-2.09519e-06
-1.86048e-06
-1.63856e-06
-1.42835e-06
-1.22963e-06
-1.04289e-06
-8.68915e-07
-7.08582e-07
-5.62592e-07
-4.31295e-07
-3.14316e-07
-2.08717e-07
-1.25799e-07
0.000198434
0.000198203
0.000197612
0.000196664
0.000195343
0.000193594
0.000191344
0.000188504
0.000184973
0.000180627
0.000175327
0.000168912
0.000161204
0.000152013
0.000141141
0.000128393
0.000113592
9.65979e-05
7.73333e-05
5.58112e-05
3.21686e-05
6.69572e-06
-2.01393e-05
-4.76803e-05
-7.50922e-05
-0.000101397
-0.000125543
-0.000146494
-0.000163348
-0.000175441
-0.00018244
-0.000184374
-0.000181626
-0.000174864
-0.000164936
-0.000152761
-0.000139223
-0.000125105
-0.000111043
-9.75205e-05
-8.48715e-05
-7.33015e-05
-6.29111e-05
-5.37214e-05
-4.56967e-05
-3.87644e-05
-3.28304e-05
-2.779e-05
-2.35362e-05
-1.99652e-05
-1.69794e-05
-1.44901e-05
-1.24186e-05
-1.06962e-05
-9.26385e-06
-8.07098e-06
-7.07468e-06
-6.23855e-06
-5.53205e-06
-4.92992e-06
-4.4116e-06
-3.96063e-06
-3.56391e-06
-3.21098e-06
-2.89338e-06
-2.60418e-06
-2.33772e-06
-2.08951e-06
-1.85621e-06
-1.63562e-06
-1.42662e-06
-1.22897e-06
-1.04312e-06
-8.69814e-07
-7.09909e-07
-5.64089e-07
-4.32686e-07
-3.15356e-07
-2.09311e-07
-1.25216e-07
0.000198572
0.000198345
0.000197766
0.000196835
0.000195538
0.00019382
0.000191608
0.000188815
0.000185339
0.000181057
0.000175828
0.000169492
0.000161869
0.000152765
0.000141977
0.000129304
0.000114561
9.75966e-05
7.83204e-05
5.67329e-05
3.29583e-05
7.27759e-06
-1.98451e-05
-4.77482e-05
-7.55801e-05
-0.000102334
-0.000126917
-0.000148248
-0.00016538
-0.000177614
-0.0001846
-0.000186375
-0.000183349
-0.000176233
-0.000165921
-0.000153371
-0.0001395
-0.000125105
-0.000110832
-9.71605e-05
-8.44175e-05
-7.2799e-05
-6.23955e-05
-5.32181e-05
-4.5223e-05
-3.83305e-05
-3.24412e-05
-2.74469e-05
-2.32379e-05
-1.97086e-05
-1.67606e-05
-1.43048e-05
-1.22625e-05
-1.05652e-05
-9.15435e-06
-7.97983e-06
-6.99904e-06
-6.17585e-06
-5.47998e-06
-4.88639e-06
-4.37488e-06
-3.92932e-06
-3.53699e-06
-3.18777e-06
-2.87345e-06
-2.58728e-06
-2.3237e-06
-2.07822e-06
-1.84751e-06
-1.62934e-06
-1.42253e-06
-1.22682e-06
-1.04259e-06
-8.70556e-07
-7.1152e-07
-5.66132e-07
-4.34704e-07
-3.16919e-07
-2.10127e-07
-1.25035e-07
0.000198775
0.000198554
0.000197992
0.000197087
0.000195825
0.000194153
0.000191997
0.000189273
0.000185878
0.000181689
0.000176567
0.000170348
0.00016285
0.000153875
0.000143214
0.000130655
0.000115999
9.90804e-05
7.97901e-05
5.81086e-05
3.41411e-05
8.1539e-06
-1.93948e-05
-4.78364e-05
-7.62948e-05
-0.00010372
-0.000128958
-0.00015086
-0.000168408
-0.000180853
-0.000187818
-0.000189352
-0.000185909
-0.00017826
-0.000167372
-0.000154264
-0.000139896
-0.000125094
-0.000110509
-9.66181e-05
-8.3738e-05
-7.20498e-05
-6.16286e-05
-5.2471e-05
-4.45206e-05
-3.76878e-05
-3.18654e-05
-2.69397e-05
-2.27974e-05
-1.93302e-05
-1.64384e-05
-1.40323e-05
-1.20331e-05
-1.0373e-05
-8.99389e-06
-7.84642e-06
-6.88845e-06
-6.08423e-06
-5.40386e-06
-4.82272e-06
-4.32106e-06
-3.88334e-06
-3.49737e-06
-3.15351e-06
-2.84394e-06
-2.56213e-06
-2.30264e-06
-2.06103e-06
-1.83394e-06
-1.61911e-06
-1.41534e-06
-1.22231e-06
-1.04035e-06
-8.70129e-07
-7.12388e-07
-5.67732e-07
-4.36443e-07
-3.18238e-07
-2.10651e-07
-1.24679e-07
0.000199038
0.000198826
0.000198285
0.000197414
0.000196198
0.000194585
0.000192503
0.000189868
0.000186578
0.000182512
0.000177528
0.000171462
0.000164128
0.000155324
0.000144829
0.000132421
0.000117884
0.00010103
8.1726e-05
5.99267e-05
3.57115e-05
9.32648e-06
-1.87792e-05
-4.79285e-05
-7.72136e-05
-0.000105528
-0.000131637
-0.000154298
-0.000172401
-0.000185126
-0.000192062
-0.000193273
-0.000189269
-0.000180912
-0.000169259
-0.000155413
-0.000140393
-0.000125056
-0.000110066
-9.58921e-05
-8.28368e-05
-7.10615e-05
-6.06204e-05
-5.14913e-05
-4.36013e-05
-3.68478e-05
-3.11139e-05
-2.62786e-05
-2.22237e-05
-1.8838e-05
-1.60197e-05
-1.36785e-05
-1.17356e-05
-1.0124e-05
-8.78633e-06
-7.67405e-06
-6.74572e-06
-5.96612e-06
-5.30581e-06
-4.74074e-06
-4.25184e-06
-3.82425e-06
-3.44655e-06
-3.1097e-06
-2.80633e-06
-2.53019e-06
-2.27598e-06
-2.03929e-06
-1.81676e-06
-1.60611e-06
-1.4061e-06
-1.21639e-06
-1.03725e-06
-8.69302e-07
-7.1324e-07
-5.69608e-07
-4.38654e-07
-3.20134e-07
-2.11774e-07
-1.2485e-07
0.000199356
0.000199154
0.000198638
0.000197808
0.000196647
0.000195106
0.000193113
0.000190586
0.000187423
0.000183506
0.00017869
0.000172811
0.000165679
0.000157083
0.000146795
0.000134574
0.000120186
0.000103418
8.41061e-05
6.21714e-05
3.76616e-05
1.07967e-05
-1.7987e-05
-4.80035e-05
-7.83077e-05
-0.000107723
-0.000134915
-0.000158523
-0.000177318
-0.000190391
-0.000197288
-0.000198091
-0.000193386
-0.000184143
-0.00017154
-0.000156783
-0.000140963
-0.000124976
-0.000109495
-9.49822e-05
-8.17198e-05
-6.9844e-05
-5.93839e-05
-5.02935e-05
-4.248e-05
-3.58253e-05
-3.02004e-05
-2.54761e-05
-2.15284e-05
-1.82421e-05
-1.55134e-05
-1.3251e-05
-1.13766e-05
-9.82366e-06
-8.53617e-06
-7.46646e-06
-6.57392e-06
-5.82398e-06
-5.1878e-06
-4.64203e-06
-4.1684e-06
-3.753e-06
-3.38525e-06
-3.05685e-06
-2.76096e-06
-2.49163e-06
-2.2437e-06
-2.01279e-06
-1.79556e-06
-1.58968e-06
-1.39393e-06
-1.20795e-06
-1.03199e-06
-8.66644e-07
-7.12535e-07
-5.70165e-07
-4.39748e-07
-3.21088e-07
-2.1213e-07
-1.24461e-07
0.00019972
0.00019953
0.000199043
0.00019826
0.000197164
0.000195704
0.000193814
0.000191411
0.000188396
0.00018465
0.00018003
0.000174368
0.00016747
0.000159119
0.000149073
0.000137076
0.000122869
0.00010621
8.68991e-05
6.48184e-05
3.99767e-05
1.25614e-05
-1.70083e-05
-4.80386e-05
-7.95422e-05
-0.00011026
-0.000138741
-0.000163478
-0.000183102
-0.000196589
-0.000203436
-0.000203745
-0.000198196
-0.000187895
-0.000174165
-0.000158334
-0.000141577
-0.000124834
-0.000108788
-9.38902e-05
-8.03958e-05
-6.84117e-05
-5.79365e-05
-4.88967e-05
-4.11765e-05
-3.46393e-05
-2.9143e-05
-2.45488e-05
-2.0726e-05
-1.75554e-05
-1.49307e-05
-1.27597e-05
-1.09644e-05
-9.47931e-06
-8.24971e-06
-7.22913e-06
-6.37787e-06
-5.6621e-06
-5.05369e-06
-4.53009e-06
-4.07403e-06
-3.67267e-06
-3.31644e-06
-2.99786e-06
-2.71066e-06
-2.4492e-06
-2.20844e-06
-1.98406e-06
-1.77268e-06
-1.57201e-06
-1.38084e-06
-1.19883e-06
-1.02625e-06
-8.63647e-07
-7.11633e-07
-5.70656e-07
-4.4091e-07
-3.22252e-07
-2.12826e-07
-1.24461e-07
0.000200123
0.000199945
0.000199491
0.00019876
0.000197734
0.000196366
0.00019459
0.000192325
0.000189474
0.000185919
0.000181517
0.000176098
0.000169465
0.00016139
0.000151621
0.000139881
0.000125886
0.00010936
9.00644e-05
6.78349e-05
4.26348e-05
1.46125e-05
-1.58353e-05
-4.80091e-05
-8.08763e-05
-0.000113086
-0.000143049
-0.000169091
-0.000189675
-0.000203641
-0.000210424
-0.000210155
-0.000203623
-0.000192097
-0.000177072
-0.000160016
-0.000142202
-0.000124613
-0.000107942
-9.26216e-05
-7.88787e-05
-6.6784e-05
-5.63011e-05
-4.73253e-05
-3.97147e-05
-3.33129e-05
-2.7963e-05
-2.35158e-05
-1.98337e-05
-1.67928e-05
-1.42842e-05
-1.22151e-05
-1.05077e-05
-9.09795e-06
-7.9326e-06
-6.96653e-06
-6.16105e-06
-5.48311e-06
-4.90535e-06
-4.40618e-06
-3.96947e-06
-3.58357e-06
-3.24007e-06
-2.93238e-06
-2.65482e-06
-2.40205e-06
-2.16914e-06
-1.95178e-06
-1.74661e-06
-1.55138e-06
-1.36493e-06
-1.18699e-06
-1.01787e-06
-8.58124e-07
-7.08331e-07
-5.6891e-07
-4.40047e-07
-3.21664e-07
-2.12124e-07
-1.23528e-07
0.000200554
0.00020039
0.000199972
0.000199296
0.000198346
0.000197076
0.000195422
0.000193307
0.000190633
0.000187285
0.000183119
0.000177965
0.00017162
0.000163849
0.000154385
0.000142933
0.00012918
0.000112813
9.35503e-05
7.11768e-05
4.56037e-05
1.69336e-05
-1.44653e-05
-4.78914e-05
-8.22654e-05
-0.000116136
-0.000147759
-0.000175271
-0.000196937
-0.000211443
-0.000218148
-0.000217218
-0.00020957
-0.000196664
-0.00018019
-0.000161778
-0.000142802
-0.000124295
-0.000106953
-9.11875e-05
-7.71881e-05
-6.49862e-05
-5.45061e-05
-4.56085e-05
-3.81236e-05
-3.18734e-05
-2.66855e-05
-2.24e-05
-1.88717e-05
-1.59721e-05
-1.35897e-05
-1.16307e-05
-1.00183e-05
-8.68989e-06
-7.59391e-06
-6.68671e-06
-5.93064e-06
-5.29349e-06
-4.74873e-06
-4.2758e-06
-3.85986e-06
-3.49061e-06
-3.16087e-06
-2.86499e-06
-2.59787e-06
-2.35445e-06
-2.12987e-06
-1.91983e-06
-1.72099e-06
-1.53118e-06
-1.34935e-06
-1.17534e-06
-1.00954e-06
-8.52534e-07
-7.04898e-07
-5.67024e-07
-4.39095e-07
-3.21103e-07
-2.1161e-07
-1.22925e-07
0.000201005
0.000200855
0.000200473
0.000199856
0.000198985
0.000197818
0.000196292
0.000194333
0.000191846
0.000188715
0.000184799
0.000179925
0.000173887
0.000166441
0.000157307
0.000146168
0.000132683
0.000116502
9.7293e-05
7.47876e-05
4.88391e-05
1.94978e-05
-1.29035e-05
-4.76652e-05
-8.36621e-05
-0.000119336
-0.000152776
-0.000181904
-0.000204764
-0.000219863
-0.000226477
-0.000224807
-0.000215922
-0.000201497
-0.000183441
-0.000163564
-0.000143347
-0.00012387
-0.000105829
-8.96058e-05
-7.53511e-05
-6.30505e-05
-5.25859e-05
-4.37811e-05
-3.64365e-05
-3.03517e-05
-2.53385e-05
-2.12259e-05
-1.78613e-05
-1.51113e-05
-1.28619e-05
-1.10188e-05
-9.50601e-06
-8.26279e-06
-7.23947e-06
-6.39395e-06
-5.68962e-06
-5.09506e-06
-4.58464e-06
-4.13894e-06
-3.74452e-06
-3.39257e-06
-3.07722e-06
-2.79378e-06
-2.53767e-06
-2.30407e-06
-2.08814e-06
-1.88557e-06
-1.69306e-06
-1.50855e-06
-1.33117e-06
-1.16094e-06
-9.98371e-07
-8.44103e-07
-6.98707e-07
-5.62554e-07
-4.35824e-07
-3.18573e-07
-2.09567e-07
-1.21347e-07
0.000201463
0.000201329
0.000200984
0.000200425
0.000199636
0.000198574
0.000197179
0.00019538
0.000193083
0.000190177
0.000186518
0.000181934
0.000176214
0.000169108
0.00016032
0.000149515
0.000136321
0.000120348
0.000101216
7.85973e-05
5.2283e-05
2.22651e-05
-1.11651e-05
-4.73161e-05
-8.50189e-05
-0.000122606
-0.000157987
-0.000188852
-0.000213
-0.000228738
-0.000235247
-0.00023277
-0.000222543
-0.000206482
-0.000186742
-0.000165319
-0.000143808
-0.000123333
-0.000104581
-8.79032e-05
-7.34024e-05
-6.10164e-05
-5.05818e-05
-4.18836e-05
-3.46918e-05
-2.87834e-05
-2.39542e-05
-2.00223e-05
-1.68279e-05
-1.42327e-05
-1.21204e-05
-1.03963e-05
-8.98571e-06
-7.82985e-06
-6.88111e-06
-6.09891e-06
-5.44764e-06
-4.89665e-06
-4.4212e-06
-4.00313e-06
-3.63052e-06
-3.29617e-06
-2.99555e-06
-2.72491e-06
-2.48015e-06
-2.25659e-06
-2.04934e-06
-1.85406e-06
-1.66752e-06
-1.48783e-06
-1.31438e-06
-1.14743e-06
-9.8767e-07
-8.35829e-07
-6.92487e-07
-5.57985e-07
-4.32487e-07
-3.16092e-07
-2.07732e-07
-1.20089e-07
0.00020192
0.000201799
0.000201492
0.000200992
0.000200284
0.000199326
0.000198062
0.000196422
0.000194317
0.000191634
0.000188235
0.000183943
0.000178546
0.000171786
0.000163354
0.000152894
0.000140007
0.000124263
0.00010523
8.25213e-05
5.5862e-05
2.51808e-05
-9.27845e-06
-4.68384e-05
-8.62909e-05
-0.000125858
-0.000163265
-0.000195954
-0.00022146
-0.000237873
-0.000244265
-0.000240925
-0.000229277
-0.000211497
-0.000190003
-0.00016699
-0.000144164
-0.000122686
-0.000103233
-8.61149e-05
-7.1385e-05
-5.893e-05
-4.85397e-05
-3.996e-05
-3.293e-05
-2.72046e-05
-2.25641e-05
-1.88163e-05
-1.57942e-05
-1.3355e-05
-1.13802e-05
-9.77497e-06
-8.46624e-06
-7.39747e-06
-6.52316e-06
-5.80417e-06
-5.20581e-06
-4.69809e-06
-4.25718e-06
-3.86626e-06
-3.51509e-06
-3.19815e-06
-2.91228e-06
-2.65463e-06
-2.42147e-06
-2.20812e-06
-2.0096e-06
-1.82147e-06
-1.64058e-06
-1.46532e-06
-1.29537e-06
-1.13133e-06
-9.74134e-07
-8.24625e-07
-6.83402e-07
-5.50764e-07
-4.2683e-07
-3.11718e-07
-2.0449e-07
-1.17958e-07
0.000202363
0.000202257
0.000201985
0.000201542
0.000200912
0.000200056
0.000198919
0.000197435
0.000195516
0.000193053
0.000189907
0.000185903
0.000180825
0.000174408
0.000166332
0.000156222
0.00014365
0.000128148
0.000109234
8.64616e-05
5.94875e-05
2.81744e-05
-7.2863e-06
-4.62376e-05
-8.74377e-05
-0.000129003
-0.00016847
-0.000203027
-0.00022993
-0.000247035
-0.000253301
-0.000249066
-0.000235949
-0.00021641
-0.000193137
-0.000168529
-0.000144402
-0.000121946
-0.000101818
-8.42864e-05
-6.93506e-05
-5.68451e-05
-4.65128e-05
-3.80605e-05
-3.11975e-05
-2.56573e-05
-2.1206e-05
-1.76413e-05
-1.47897e-05
-1.25041e-05
-1.06639e-05
-9.17484e-06
-7.96546e-06
-6.98172e-06
-6.18019e-06
-5.52309e-06
-4.97641e-06
-4.51074e-06
-4.10315e-06
-3.73823e-06
-3.40752e-06
-3.10727e-06
-2.83574e-06
-2.59085e-06
-2.36914e-06
-2.16581e-06
-1.97566e-06
-1.79414e-06
-1.6182e-06
-1.44651e-06
-1.2792e-06
-1.11725e-06
-9.61913e-07
-8.14199e-07
-6.74734e-07
-5.43765e-07
-4.21345e-07
-3.07563e-07
-2.01559e-07
-1.16153e-07
0.000202782
0.00020269
0.000202452
0.000202063
0.000201507
0.000200747
0.000199731
0.000198393
0.000196651
0.000194397
0.000191493
0.000187764
0.000182992
0.000176906
0.000169176
0.000159409
0.000147151
0.000131897
0.000113119
9.03082e-05
6.30571e-05
3.11603e-05
-5.24651e-06
-4.55318e-05
-8.84273e-05
-0.000131949
-0.000173451
-0.000209866
-0.000238165
-0.000255963
-0.000262099
-0.000256959
-0.000242371
-0.000221081
-0.000196058
-0.000169898
-0.00014452
-0.000121136
-0.00010038
-8.24708e-05
-6.73566e-05
-5.48192e-05
-4.45554e-05
-3.62347e-05
-2.95381e-05
-2.41795e-05
-1.99118e-05
-1.65237e-05
-1.38356e-05
-1.16965e-05
-9.98427e-06
-8.60499e-06
-7.48947e-06
-6.58615e-06
-5.85367e-06
-5.25537e-06
-4.75772e-06
-4.33173e-06
-3.95532e-06
-3.61454e-06
-3.30281e-06
-3.01819e-06
-2.76032e-06
-2.52786e-06
-2.31745e-06
-2.12405e-06
-1.9421e-06
-1.76689e-06
-1.59546e-06
-1.42683e-06
-1.2616e-06
-1.10125e-06
-9.47401e-07
-8.01269e-07
-6.63526e-07
-5.34361e-07
-4.13731e-07
-3.01664e-07
-1.97334e-07
-1.13558e-07
0.000203169
0.000203088
0.000202881
0.000202542
0.000202054
0.000201382
0.000200476
0.000199274
0.000197695
0.000195633
0.000192952
0.000189478
0.000184991
0.000179215
0.00017181
0.000162368
0.000150412
0.000135402
0.000116767
9.39428e-05
6.64575e-05
3.40397e-05
-3.231e-06
-4.47526e-05
-8.92373e-05
-0.000134612
-0.000178055
-0.000216255
-0.000245903
-0.000264371
-0.000270377
-0.000264358
-0.000248345
-0.000225374
-0.000198685
-0.000171066
-0.000144526
-0.000120292
-9.89698e-05
-8.07301e-05
-6.54681e-05
-5.29163e-05
-4.27281e-05
-3.45383e-05
-2.80022e-05
-2.28162e-05
-1.87214e-05
-1.54988e-05
-1.29632e-05
-1.09599e-05
-9.36573e-06
-8.08746e-06
-7.05817e-06
-6.22893e-06
-5.56024e-06
-5.01638e-06
-4.56405e-06
-4.17445e-06
-3.82631e-06
-3.50715e-06
-3.21228e-06
-2.94161e-06
-2.69613e-06
-2.47511e-06
-2.27522e-06
-2.09101e-06
-1.91651e-06
-1.74678e-06
-1.57893e-06
-1.41236e-06
-1.2482e-06
-1.08847e-06
-9.35223e-07
-7.89929e-07
-6.5333e-07
-5.25556e-07
-4.06458e-07
-2.95971e-07
-1.93269e-07
-1.11085e-07
0.000203513
0.000203443
0.000203264
0.000202968
0.00020254
0.000201945
0.000201137
0.000200055
0.00019862
0.000196729
0.000194247
0.000191
0.000186767
0.000181269
0.000174158
0.000165012
0.000153333
0.000138554
0.000120062
9.72439e-05
6.95692e-05
3.67052e-05
-1.32263e-06
-4.39434e-05
-8.98566e-05
-0.000136911
-0.00018213
-0.000221973
-0.000252868
-0.000271958
-0.000277843
-0.000271004
-0.000253672
-0.000229155
-0.000200949
-0.000172014
-0.000144439
-0.000119459
-9.76467e-05
-7.9128e-05
-6.37489e-05
-5.11967e-05
-4.10856e-05
-3.30192e-05
-2.66307e-05
-2.16013e-05
-1.76624e-05
-1.45882e-05
-1.21887e-05
-1.03062e-05
-8.81634e-06
-7.62698e-06
-6.6736e-06
-5.90976e-06
-5.29771e-06
-4.80233e-06
-4.39033e-06
-4.03296e-06
-3.70959e-06
-3.40917e-06
-3.12886e-06
-2.87036e-06
-2.63591e-06
-2.42536e-06
-2.23526e-06
-2.05969e-06
-1.89217e-06
-1.72746e-06
-1.56275e-06
-1.39779e-06
-1.23426e-06
-1.07477e-06
-9.21815e-07
-7.77149e-07
-6.41605e-07
-5.15265e-07
-3.97864e-07
-2.89223e-07
-1.88481e-07
-1.08267e-07
0.000203807
0.000203746
0.00020359
0.000203331
0.000202953
0.000202424
0.000201698
0.000200717
0.000199404
0.000197657
0.000195342
0.000192289
0.000188272
0.000183011
0.000176152
0.000167261
0.000155825
0.00014125
0.000122891
0.000100093
7.22735e-05
3.90471e-05
3.90109e-07
-4.31564e-05
-9.02849e-05
-0.000138781
-0.000185534
-0.000226806
-0.00025879
-0.000278424
-0.000284202
-0.000276646
-0.000258161
-0.000232301
-0.000202789
-0.000172734
-0.000144287
-0.000118686
-9.64732e-05
-7.77322e-05
-6.22667e-05
-4.97246e-05
-3.96868e-05
-3.17308e-05
-2.54712e-05
-2.05772e-05
-1.67723e-05
-1.38252e-05
-1.15418e-05
-9.76184e-06
-8.36004e-06
-7.24554e-06
-6.35604e-06
-5.64744e-06
-5.08344e-06
-4.62935e-06
-4.25163e-06
-3.92143e-06
-3.61864e-06
-3.33347e-06
-3.06482e-06
-2.81605e-06
-2.59056e-06
-2.38867e-06
-2.20675e-06
-2.03839e-06
-1.87656e-06
-1.71572e-06
-1.55308e-06
-1.38874e-06
-1.22492e-06
-1.06478e-06
-9.11288e-07
-7.66498e-07
-6.31347e-07
-5.05884e-07
-3.89731e-07
-2.82599e-07
-1.83592e-07
-1.05228e-07
0.000204044
0.000203991
0.000203853
0.000203623
0.000203284
0.000202806
0.000202145
0.000201244
0.000200026
0.000198392
0.000196211
0.000193309
0.000189464
0.000184391
0.000177732
0.000169046
0.000157805
0.000143398
0.000125153
0.000102381
7.44601e-05
4.09611e-05
1.82032e-06
-4.24472e-05
-9.05309e-05
-0.000140168
-0.000188144
-0.000230559
-0.00026342
-0.000283494
-0.000289186
-0.00028105
-0.000261639
-0.000234708
-0.000204161
-0.000173225
-0.000144101
-0.000118023
-9.55066e-05
-7.66017e-05
-6.10775e-05
-4.85507e-05
-3.85759e-05
-3.07104e-05
-2.45545e-05
-1.97684e-05
-1.60697e-05
-1.32232e-05
-1.10313e-05
-9.3318e-06
-7.99887e-06
-6.94272e-06
-6.10308e-06
-5.43782e-06
-4.91183e-06
-4.49059e-06
-4.14021e-06
-3.83159e-06
-3.54498e-06
-3.27166e-06
-3.01199e-06
-2.77077e-06
-2.55242e-06
-2.35759e-06
-2.18248e-06
-2.02018e-06
-1.86315e-06
-1.70553e-06
-1.54454e-06
-1.38056e-06
-1.21629e-06
-1.05542e-06
-9.0135e-07
-7.56401e-07
-6.21631e-07
-4.97065e-07
-3.82224e-07
-2.76699e-07
-1.7952e-07
-1.02985e-07
0.00020422
0.000204171
0.000204046
0.000203836
0.000203526
0.000203084
0.000202468
0.000201622
0.000200471
0.000198917
0.000196828
0.000194033
0.000190308
0.000185368
0.00017885
0.00017031
0.000159209
0.000144924
0.000126764
0.000104018
7.6036e-05
4.23579e-05
2.89132e-06
-4.18677e-05
-9.06079e-05
-0.000141034
-0.00018986
-0.000233074
-0.000266549
-0.000286931
-0.000292564
-0.000284023
-0.000263967
-0.000236292
-0.000205032
-0.000173495
-0.000143913
-0.000117516
-9.48005e-05
-7.57915e-05
-6.02345e-05
-4.77246e-05
-3.77982e-05
-2.99986e-05
-2.3917e-05
-1.92074e-05
-1.55838e-05
-1.28082e-05
-1.06808e-05
-9.03776e-06
-7.75291e-06
-6.73738e-06
-5.93249e-06
-5.29764e-06
-4.79849e-06
-4.40057e-06
-4.06958e-06
-3.77609e-06
-3.50057e-06
-3.23509e-06
-2.98116e-06
-2.74468e-06
-2.53084e-06
-2.34059e-06
-2.16996e-06
-2.01161e-06
-1.85755e-06
-1.70168e-06
-1.54119e-06
-1.3767e-06
-1.21129e-06
-1.04909e-06
-8.93854e-07
-7.48169e-07
-6.13191e-07
-4.88938e-07
-3.74847e-07
-2.70414e-07
-1.74646e-07
-9.97426e-08
0.00020433
0.000204284
0.000204166
0.000203967
0.000203672
0.000203249
0.000202658
0.000201842
0.000200728
0.000199217
0.000197179
0.000194441
0.000190782
0.000185914
0.000179473
0.000171012
0.000159989
0.000145772
0.000127663
0.000104938
7.69329e-05
4.31709e-05
3.54495e-06
-4.14591e-05
-9.053e-05
-0.000141356
-0.000190615
-0.000234238
-0.000268027
-0.000288568
-0.000294171
-0.000285426
-0.000265044
-0.000236996
-0.000205382
-0.000173551
-0.000143747
-0.000117198
-9.43906e-05
-7.53367e-05
-5.97697e-05
-4.72738e-05
-3.73763e-05
-2.96137e-05
-2.35725e-05
-1.89041e-05
-1.53209e-05
-1.25834e-05
-1.04906e-05
-8.87766e-06
-7.61846e-06
-6.6246e-06
-5.83842e-06
-5.2202e-06
-4.73605e-06
-4.35137e-06
-4.03147e-06
-3.74663e-06
-3.47735e-06
-3.21616e-06
-2.96525e-06
-2.73128e-06
-2.5199e-06
-2.33225e-06
-2.16422e-06
-2.00818e-06
-1.85583e-06
-1.70086e-06
-1.54043e-06
-1.37533e-06
-1.20891e-06
-1.0456e-06
-8.89441e-07
-7.43188e-07
-6.08093e-07
-4.84167e-07
-3.70783e-07
-2.67341e-07
-1.7275e-07
-9.88697e-08
0.000204373
0.000204327
0.00020421
0.000204013
0.00020372
0.0002033
0.000202712
0.000201901
0.000200792
0.000199286
0.000197254
0.000194524
0.000190873
0.000186013
0.000179583
0.000171133
0.00016012
0.000145916
0.000127819
0.000105107
7.71141e-05
4.3364e-05
3.74917e-06
-4.12448e-05
-9.03068e-05
-0.000141125
-0.000190377
-0.000233994
-0.000267779
-0.000288319
-0.000293924
-0.000285188
-0.000264821
-0.000236794
-0.000205205
-0.000173399
-0.000143619
-0.000117091
-9.43001e-05
-7.52606e-05
-5.97056e-05
-4.72197e-05
-3.73302e-05
-2.95742e-05
-2.35385e-05
-1.8875e-05
-1.52963e-05
-1.25631e-05
-1.04741e-05
-8.86455e-06
-7.60806e-06
-6.61652e-06
-5.83255e-06
-5.21665e-06
-4.73495e-06
-4.35268e-06
-4.03484e-06
-3.75147e-06
-3.48295e-06
-3.22189e-06
-2.97073e-06
-2.73637e-06
-2.52466e-06
-2.3368e-06
-2.16863e-06
-2.01238e-06
-1.8596e-06
-1.70387e-06
-1.54235e-06
-1.3759e-06
-1.20801e-06
-1.04326e-06
-8.85864e-07
-7.3869e-07
-6.03042e-07
-4.78933e-07
-3.65692e-07
-2.62665e-07
-1.68756e-07
-9.57867e-08
0.000204347
0.0002043
0.000204178
0.000203973
0.000203669
0.000203236
0.00020263
0.000201797
0.000200661
0.000199124
0.000197054
0.000194281
0.00019058
0.000185667
0.000179178
0.00017067
0.000159603
0.000145353
0.000127231
0.000104522
7.65775e-05
4.29349e-05
3.50146e-06
-4.12276e-05
-8.9941e-05
-0.000140344
-0.000189149
-0.000232346
-0.000265808
-0.000286186
-0.000291827
-0.000283313
-0.000263303
-0.00023569
-0.000204503
-0.000173041
-0.000143528
-0.000117191
-9.45266e-05
-7.55601e-05
-6.00384e-05
-4.75576e-05
-3.76548e-05
-2.98744e-05
-2.38087e-05
-1.91132e-05
-1.55028e-05
-1.27398e-05
-1.06237e-05
-8.99046e-06
-7.71378e-06
-6.7053e-06
-5.90722e-06
-5.27953e-06
-4.78803e-06
-4.39767e-06
-4.07329e-06
-3.78473e-06
-3.51212e-06
-3.24776e-06
-2.99381e-06
-2.75692e-06
-2.54282e-06
-2.35265e-06
-2.18226e-06
-2.02394e-06
-1.86924e-06
-1.71177e-06
-1.54868e-06
-1.3808e-06
-1.21165e-06
-1.04582e-06
-8.87535e-07
-7.39703e-07
-6.03645e-07
-4.79373e-07
-3.66185e-07
-2.63365e-07
-1.69698e-07
-9.65712e-08
0.000204256
0.000204204
0.000204072
0.00020385
0.000203523
0.000203059
0.000202415
0.000201534
0.000200341
0.000198735
0.000196585
0.000193719
0.000189914
0.000184886
0.000178275
0.000169642
0.000158457
0.000144109
0.000125925
0.000103215
7.53552e-05
4.19148e-05
2.82856e-06
-4.13895e-05
-8.94293e-05
-0.000139028
-0.000186971
-0.000229359
-0.0002622
-0.000282268
-0.000287976
-0.000279884
-0.000260548
-0.000233719
-0.00020329
-0.000172476
-0.000143465
-0.000117485
-9.50529e-05
-7.62184e-05
-6.0753e-05
-4.82749e-05
-3.83397e-05
-3.05065e-05
-2.43777e-05
-1.96154e-05
-1.59389e-05
-1.31133e-05
-1.09405e-05
-9.25747e-06
-7.93831e-06
-6.89403e-06
-6.06568e-06
-5.41216e-06
-4.89851e-06
-4.48939e-06
-4.14959e-06
-3.84881e-06
-3.56679e-06
-3.29517e-06
-3.03529e-06
-2.79312e-06
-2.57392e-06
-2.37869e-06
-2.20337e-06
-2.04045e-06
-1.8817e-06
-1.72084e-06
-1.55504e-06
-1.38506e-06
-1.21427e-06
-1.04713e-06
-8.87791e-07
-7.39093e-07
-6.02342e-07
-4.77542e-07
-3.6398e-07
-2.60916e-07
-1.67145e-07
-9.40469e-08
0.000204101
0.000204043
0.000203894
0.000203647
0.000203285
0.000202775
0.000202073
0.000201121
0.000199841
0.000198133
0.000195863
0.000192859
0.000188898
0.000183698
0.000176906
0.000168088
0.000156728
0.000142235
0.00012396
0.000101246
7.35112e-05
4.03654e-05
1.78357e-06
-4.16949e-05
-8.87633e-05
-0.000137207
-0.000183916
-0.000225152
-0.000257112
-0.000276741
-0.000282543
-0.000275048
-0.000256665
-0.000230943
-0.00020159
-0.000171698
-0.000143404
-0.000117938
-9.58398e-05
-7.71955e-05
-6.18109e-05
-4.93359e-05
-3.93531e-05
-3.14422e-05
-2.52203e-05
-2.03594e-05
-1.65852e-05
-1.3667e-05
-1.14099e-05
-9.6529e-06
-8.27052e-06
-7.1729e-06
-6.29935e-06
-5.60711e-06
-5.06014e-06
-4.62277e-06
-4.25977e-06
-3.94075e-06
-3.64491e-06
-3.36286e-06
-3.09469e-06
-2.84526e-06
-2.61907e-06
-2.41686e-06
-2.23471e-06
-2.06547e-06
-1.90127e-06
-1.73605e-06
-1.56701e-06
-1.39477e-06
-1.22243e-06
-1.05423e-06
-8.94092e-07
-7.44735e-07
-6.07414e-07
-4.8212e-07
-3.6813e-07
-2.64662e-07
-1.7037e-07
-9.61445e-08
0.000203888
0.000203821
0.000203652
0.000203371
0.000202962
0.000202392
0.000201615
0.000200569
0.000199177
0.000197335
0.000194909
0.000191725
0.000187563
0.000182142
0.000175115
0.00016606
0.000154479
0.000139802
0.000121415
9.87043e-05
7.11349e-05
3.83722e-05
4.38703e-07
-4.20967e-05
-8.79348e-05
-0.000134924
-0.00018009
-0.000219891
-0.000250759
-0.000269847
-0.000275765
-0.000269005
-0.0002518
-0.000227452
-0.000199441
-0.000170706
-0.00014332
-0.000118507
-9.68388e-05
-7.8442e-05
-6.31654e-05
-5.06986e-05
-4.06582e-05
-3.265e-05
-2.63103e-05
-2.13238e-05
-1.74243e-05
-1.4387e-05
-1.20212e-05
-1.01684e-05
-8.70387e-06
-7.53658e-06
-6.60381e-06
-5.86069e-06
-5.26983e-06
-4.79513e-06
-4.40138e-06
-4.05807e-06
-3.74371e-06
-3.44763e-06
-3.16831e-06
-2.90911e-06
-2.67358e-06
-2.46209e-06
-2.27088e-06
-2.09326e-06
-1.92185e-06
-1.7509e-06
-1.57761e-06
-1.40243e-06
-1.22813e-06
-1.05858e-06
-8.97425e-07
-7.47205e-07
-6.0909e-07
-4.83055e-07
-3.68374e-07
-2.64246e-07
-1.69318e-07
-9.44552e-08
0.000203622
0.000203546
0.00020335
0.000203029
0.000202564
0.000201922
0.000201053
0.000199895
0.000198367
0.000196364
0.000193751
0.000190352
0.000185949
0.000180265
0.000172962
0.000163629
0.000151788
0.000136901
0.000118391
9.56936e-05
6.83334e-05
3.60357e-05
-1.12304e-06
-4.25435e-05
-8.69395e-05
-0.000132238
-0.000175621
-0.000213774
-0.000243396
-0.000261867
-0.000267918
-0.000261993
-0.000246129
-0.000223354
-0.00019689
-0.000169501
-0.000143181
-0.000119143
-9.7991e-05
-7.9896e-05
-6.47563e-05
-5.23071e-05
-4.22043e-05
-3.40852e-05
-2.76088e-05
-2.24748e-05
-1.84276e-05
-1.52493e-05
-1.27544e-05
-1.07873e-05
-9.22428e-06
-7.97331e-06
-6.96931e-06
-6.16504e-06
-5.52155e-06
-5.00212e-06
-4.57154e-06
-4.19911e-06
-3.86254e-06
-3.54963e-06
-3.25702e-06
-2.98633e-06
-2.73992e-06
-2.51772e-06
-2.31613e-06
-2.12896e-06
-1.94937e-06
-1.77195e-06
-1.59396e-06
-1.41558e-06
-1.23923e-06
-1.06835e-06
-9.06223e-07
-7.55193e-07
-6.16325e-07
-4.89567e-07
-3.74184e-07
-2.69325e-07
-1.7348e-07
-9.7034e-08
0.000203311
0.000203223
0.000202998
0.00020263
0.000202102
0.000201376
0.000200403
0.000199117
0.000197434
0.000195249
0.000192422
0.000188781
0.000184106
0.000178126
0.000170513
0.000160871
0.000148746
0.000133631
0.000114996
9.23307e-05
6.52225e-05
3.34628e-05
-2.81628e-06
-4.29864e-05
-8.57815e-05
-0.000129219
-0.000170654
-0.000207021
-0.000235296
-0.000253105
-0.000259296
-0.000254267
-0.000239847
-0.000218774
-0.000193999
-0.000168096
-0.000142962
-0.0001198
-9.92369e-05
-8.14939e-05
-6.65207e-05
-5.41024e-05
-4.39385e-05
-3.57012e-05
-2.90752e-05
-2.37783e-05
-1.95664e-05
-1.62302e-05
-1.35898e-05
-1.14934e-05
-9.81836e-06
-8.47178e-06
-7.38624e-06
-6.51195e-06
-5.80824e-06
-5.23764e-06
-4.76477e-06
-4.35869e-06
-3.99618e-06
-3.66345e-06
-3.35511e-06
-3.07091e-06
-2.8119e-06
-2.57744e-06
-2.36407e-06
-2.16608e-06
-1.97721e-06
-1.79238e-06
-1.6089e-06
-1.42672e-06
-1.24782e-06
-1.0752e-06
-9.11795e-07
-7.59696e-07
-6.19861e-07
-4.92205e-07
-3.75974e-07
-2.70276e-07
-1.73545e-07
-9.61038e-08
0.000202963
0.000202863
0.000202606
0.000202187
0.000201588
0.000200771
0.000199682
0.000198256
0.000196404
0.000194018
0.00019096
0.000187054
0.000182085
0.000175787
0.000167841
0.000157872
0.000145448
0.000130101
0.000111347
8.87355e-05
6.19199e-05
3.07588e-05
-4.56041e-06
-4.33844e-05
-8.44742e-05
-0.000125948
-0.000165344
-0.000199853
-0.000226737
-0.000243861
-0.000250194
-0.000246084
-0.000233151
-0.000213847
-0.000190841
-0.000166509
-0.000142647
-0.000120433
-0.000100519
-8.31715e-05
-6.83934e-05
-5.60221e-05
-4.58031e-05
-3.74461e-05
-3.06641e-05
-2.51945e-05
-2.0807e-05
-1.73011e-05
-1.45037e-05
-1.22668e-05
-1.04697e-05
-9.01851e-06
-7.84362e-06
-6.89274e-06
-6.12329e-06
-5.49687e-06
-4.97781e-06
-4.53479e-06
-4.14364e-06
-3.7889e-06
-3.46314e-06
-3.16415e-06
-2.89157e-06
-2.64413e-06
-2.4184e-06
-2.20911e-06
-2.01052e-06
-1.8179e-06
-1.6286e-06
-1.44232e-06
-1.26065e-06
-1.08614e-06
-9.21354e-07
-7.68144e-07
-6.27348e-07
-4.98833e-07
-3.81805e-07
-2.75286e-07
-1.77523e-07
-9.84281e-08
0.000202588
0.000202474
0.000202183
0.000201709
0.000201035
0.000200121
0.000198911
0.000197335
0.000195304
0.000192707
0.000189404
0.00018522
0.000179943
0.000173314
0.000165025
0.000154718
0.000141993
0.000126418
0.000107559
8.50249e-05
5.85376e-05
2.80211e-05
-6.28493e-06
-4.37075e-05
-8.30415e-05
-0.000122512
-0.000159846
-0.000192489
-0.000217982
-0.000234422
-0.000240894
-0.000237692
-0.000226241
-0.000208709
-0.000187495
-0.000164772
-0.000142228
-0.000121009
-0.000101787
-8.48691e-05
-7.03121e-05
-5.80052e-05
-4.77409e-05
-3.92681e-05
-3.23294e-05
-2.66836e-05
-2.21148e-05
-1.84328e-05
-1.54713e-05
-1.3087e-05
-1.11609e-05
-9.59878e-06
-8.329e-06
-7.29681e-06
-6.45763e-06
-5.772e-06
-5.20376e-06
-4.72112e-06
-4.29895e-06
-3.92018e-06
-3.57535e-06
-3.2603e-06
-2.97323e-06
-2.71213e-06
-2.4735e-06
-2.25244e-06