# Force       
# CofR        : (0.000000e+00 0.000000e+00 0.000000e+00)
#
# Time        	total_x total_y total_z	pressure_x pressure_y pressure_z	viscous_x viscous_y viscous_z
1              1.341510e+00 -3.334517e-04 -1.464893e-03 1.105258e+00 -3.319947e-04 -1.462261e-03 2.362518e-01 -1.456911e-06 -2.632116e-06
2              1.412891e+00 -5.532345e-04 -1.819127e-03 1.190349e+00 -5.538779e-04 -1.813618e-03 2.225421e-01 6.434225e-07 -5.509450e-06
3              1.194806e+00 -3.977003e-04 -4.068520e-04 9.830501e-01 -3.996501e-04 -4.015979e-04 2.117561e-01 1.949762e-06 -5.254032e-06
4              8.407383e-01 1.707739e-06 1.731701e-03 6.376307e-01 2.547532e-07 1.735315e-03 2.031076e-01 1.452985e-06 -3.613418e-06
5              4.724834e-01 4.729335e-04 3.404399e-03 2.763278e-01 4.739341e-04 3.405678e-03 1.961556e-01 -1.000604e-06 -1.278775e-06
6              1.746402e-01 8.727058e-04 3.792488e-03 -1.591738e-02 8.767957e-04 3.791829e-03 1.905576e-01 -4.089876e-06 6.584167e-07
7              -1.055446e-02 1.054473e-03 2.684603e-03 -1.964901e-01 1.061089e-03 2.683143e-03 1.859356e-01 -6.615275e-06 1.460084e-06
8              -7.180971e-02 1.262216e-03 1.479354e-03 -2.538088e-01 1.270077e-03 1.478008e-03 1.819990e-01 -7.861039e-06 1.346545e-06
9              -5.028592e-02 1.380867e-03 -1.701582e-05 -2.286977e-01 1.388634e-03 -1.738739e-05 1.784118e-01 -7.767798e-06 3.715682e-07
10             1.606199e-02 1.356953e-03 -1.573734e-03 -1.588860e-01 1.363661e-03 -1.572226e-03 1.749480e-01 -6.707889e-06 -1.508071e-06
11             1.051431e-01 6.140770e-04 -2.675716e-03 -6.640567e-02 6.192346e-04 -2.672071e-03 1.715488e-01 -5.157623e-06 -3.644261e-06
12             1.867920e-01 -2.302603e-04 -2.851957e-03 1.859861e-02 -2.271757e-04 -2.846945e-03 1.681934e-01 -3.084626e-06 -5.011758e-06
13             2.398460e-01 -6.354870e-04 -2.643395e-03 7.490276e-02 -6.345376e-04 -2.637691e-03 1.649433e-01 -9.493297e-07 -5.704012e-06
14             2.694207e-01 -1.154665e-03 -1.715142e-03 1.075340e-01 -1.155234e-03 -1.709422e-03 1.618867e-01 5.696042e-07 -5.720207e-06
15             2.744754e-01 -1.505151e-03 -5.007187e-04 1.153973e-01 -1.506176e-03 -4.956553e-04 1.590780e-01 1.024221e-06 -5.063400e-06
16             2.615320e-01 -1.467996e-03 3.618834e-04 1.049701e-01 -1.468527e-03 3.659415e-04 1.565619e-01 5.311916e-07 -4.058086e-06
17             2.410066e-01 -1.227020e-03 9.621126e-04 8.668566e-02 -1.226394e-03 9.650704e-04 1.543210e-01 -6.254830e-07 -2.957792e-06
18             2.194165e-01 -8.422501e-04 1.302924e-03 6.708196e-02 -8.401598e-04 1.304885e-03 1.523345e-01 -2.090271e-06 -1.961673e-06
19             2.012085e-01 -3.623044e-04 1.362485e-03 5.064121e-02 -3.587845e-04 1.363716e-03 1.505673e-01 -3.519889e-06 -1.230716e-06
20             1.882315e-01 1.913030e-04 1.155734e-03 3.925452e-02 1.959394e-04 1.156592e-03 1.489769e-01 -4.636398e-06 -8.578193e-07
21             1.807961e-01 7.767871e-04 6.832931e-04 3.326908e-02 7.820300e-04 6.841577e-04 1.475270e-01 -5.242898e-06 -8.646640e-07
22             1.789314e-01 1.102322e-03 1.855850e-04 3.274231e-02 1.107654e-03 1.867190e-04 1.461890e-01 -5.332025e-06 -1.134072e-06
23             1.808119e-01 1.087271e-03 -1.522884e-04 3.588057e-02 1.092324e-03 -1.507791e-04 1.449313e-01 -5.052546e-06 -1.509274e-06
24             1.841523e-01 8.601658e-04 -3.255655e-04 4.040615e-02 8.647433e-04 -3.237213e-04 1.437461e-01 -4.577474e-06 -1.844157e-06
25             1.873975e-01 5.322110e-04 -3.823448e-04 4.477007e-02 5.362608e-04 -3.802984e-04 1.426274e-01 -4.049759e-06 -2.046433e-06
26             1.896437e-01 1.646966e-04 -3.532285e-04 4.807992e-02 1.682902e-04 -3.511457e-04 1.415637e-01 -3.593608e-06 -2.082778e-06
27             1.905813e-01 -2.078087e-04 -2.614408e-04 5.002339e-02 -2.045009e-04 -2.594757e-04 1.405579e-01 -3.307773e-06 -1.965090e-06
28             1.903577e-01 -5.039952e-04 -1.593129e-04 5.075099e-02 -5.007596e-04 -1.575523e-04 1.396067e-01 -3.235594e-06 -1.760597e-06
29             1.892131e-01 -6.233501e-04 -9.376767e-05 5.050458e-02 -6.200068e-04 -9.222173e-05 1.387085e-01 -3.343279e-06 -1.545945e-06
30             1.874853e-01 -5.683857e-04 -6.339504e-05 4.962446e-02 -5.648289e-04 -6.202164e-05 1.378609e-01 -3.556844e-06 -1.373396e-06
31             1.855545e-01 -4.039702e-04 -5.259798e-05 4.849585e-02 -4.001644e-04 -5.132853e-05 1.370586e-01 -3.805796e-06 -1.269449e-06
32             1.837462e-01 -2.000942e-04 -4.898550e-05 4.744968e-02 -1.960617e-04 -4.774626e-05 1.362965e-01 -4.032589e-06 -1.239249e-06
33             1.822636e-01 3.757616e-06 -4.770894e-05 4.669346e-02 7.948006e-06 -4.643451e-05 1.355702e-01 -4.190390e-06 -1.274428e-06
34             1.811277e-01 1.839421e-04 -4.281283e-05 4.625201e-02 1.881931e-04 -4.146643e-05 1.348757e-01 -4.251018e-06 -1.346401e-06
35             1.802362e-01 2.781554e-04 -2.067608e-05 4.602703e-02 2.823915e-04 -1.925788e-05 1.342092e-01 -4.236122e-06 -1.418191e-06
36             1.795593e-01 2.701688e-04 8.162555e-06 4.599182e-02 2.743531e-04 9.629876e-06 1.335675e-01 -4.184303e-06 -1.467321e-06
37             1.790487e-01 1.965424e-04 3.117594e-05 4.610080e-02 2.006632e-04 3.265938e-05 1.329479e-01 -4.120864e-06 -1.483435e-06
38             1.786267e-01 1.034802e-04 4.159908e-05 4.627842e-02 1.075364e-04 4.306433e-05 1.323483e-01 -4.056162e-06 -1.465246e-06
39             1.782050e-01 1.692474e-05 3.987009e-05 4.643811e-02 2.092268e-05 4.128666e-05 1.317669e-01 -3.997940e-06 -1.416577e-06
40             1.777246e-01 -5.569899e-05 2.781315e-05 4.652210e-02 -5.174158e-05 2.916224e-05 1.312025e-01 -3.957416e-06 -1.349091e-06
41             1.771855e-01 -1.070728e-04 5.128327e-06 4.653140e-02 -1.031340e-04 6.410013e-06 1.306541e-01 -3.938806e-06 -1.281686e-06
42             1.766478e-01 -1.151267e-04 -2.274103e-05 4.652696e-02 -1.111995e-04 -2.151344e-05 1.301209e-01 -3.927223e-06 -1.227591e-06
43             1.760980e-01 -8.756043e-05 -4.487532e-05 4.649620e-02 -8.364717e-05 -4.368350e-05 1.296018e-01 -3.913260e-06 -1.191820e-06
44             1.755256e-01 -4.780713e-05 -5.685121e-05 4.642935e-02 -4.390908e-05 -5.567555e-05 1.290962e-01 -3.898050e-06 -1.175666e-06
45             1.749475e-01 -1.286726e-05 -6.027156e-05 4.634374e-02 -8.980341e-06 -5.909170e-05 1.286037e-01 -3.886916e-06 -1.179853e-06
46             1.743879e-01 1.329558e-05 -5.790822e-05 4.626421e-02 1.717615e-05 -5.670683e-05 1.281237e-01 -3.880561e-06 -1.201390e-06
47             1.738590e-01 2.700736e-05 -5.181479e-05 4.620367e-02 3.088729e-05 -5.058044e-05 1.276553e-01 -3.879931e-06 -1.234356e-06
48             1.733464e-01 2.366373e-05 -4.312459e-05 4.614842e-02 2.755290e-05 -4.185461e-05 1.271980e-01 -3.889162e-06 -1.269973e-06
49             1.728380e-01 1.001536e-05 -3.333222e-05 4.608686e-02 1.392171e-05 -3.203121e-05 1.267511e-01 -3.906354e-06 -1.301019e-06
50             1.723492e-01 -3.929938e-06 -2.599906e-05 4.603517e-02 -5.225451e-09 -2.467481e-05 1.263140e-01 -3.924713e-06 -1.324250e-06
51             1.718814e-01 -1.432336e-05 -2.201382e-05 4.599565e-02 -1.038440e-05 -2.067584e-05 1.258858e-01 -3.938961e-06 -1.337978e-06
52             1.714263e-01 -2.071346e-05 -2.094612e-05 4.596042e-02 -1.676639e-05 -1.960354e-05 1.254659e-01 -3.947069e-06 -1.342578e-06
53             1.709766e-01 -2.322051e-05 -2.222925e-05 4.592278e-02 -1.927149e-05 -2.088893e-05 1.250538e-01 -3.949020e-06 -1.340327e-06
54             1.705301e-01 -2.202867e-05 -2.516226e-05 4.588063e-02 -1.808324e-05 -2.382786e-05 1.246494e-01 -3.945424e-06 -1.334400e-06
55             1.700868e-01 -1.751926e-05 -2.913090e-05 4.583435e-02 -1.358230e-05 -2.780307e-05 1.242524e-01 -3.936963e-06 -1.327826e-06
56             1.696515e-01 -1.014128e-05 -3.321999e-05 4.578889e-02 -6.217184e-06 -3.189666e-05 1.238626e-01 -3.924101e-06 -1.323337e-06
57             1.692282e-01 -2.405893e-06 -3.550692e-05 4.574844e-02 1.502514e-06 -3.418507e-05 1.234797e-01 -3.908406e-06 -1.321844e-06
58             1.688143e-01 2.629534e-06 -3.514564e-05 4.571058e-02 6.522674e-06 -3.382297e-05 1.231037e-01 -3.893140e-06 -1.322664e-06
59             1.684068e-01 4.165263e-06 -3.300909e-05 4.567235e-02 8.045709e-06 -3.168436e-05 1.227344e-01 -3.880446e-06 -1.324721e-06
60             1.680055e-01 3.337041e-06 -3.027439e-05 4.563382e-02 7.208447e-06 -2.894717e-05 1.223717e-01 -3.871406e-06 -1.327220e-06
61             1.676115e-01 1.296091e-06 -2.771973e-05 4.559627e-02 5.161680e-06 -2.639038e-05 1.220153e-01 -3.865589e-06 -1.329348e-06
62             1.672249e-01 -1.364808e-06 -2.576978e-05 4.555980e-02 2.497418e-06 -2.443937e-05 1.216651e-01 -3.862225e-06 -1.330402e-06
63             1.668451e-01 -4.233305e-06 -2.462247e-05 4.552413e-02 -3.726265e-07 -2.329238e-05 1.213210e-01 -3.860679e-06 -1.330095e-06
64             1.664718e-01 -6.944546e-06 -2.428756e-05 4.548906e-02 -3.084177e-06 -2.295918e-05 1.209828e-01 -3.860369e-06 -1.328377e-06
65             1.661041e-01 -9.155163e-06 -2.452377e-05 4.545370e-02 -5.294353e-06 -2.319833e-05 1.206504e-01 -3.860811e-06 -1.325435e-06
66             1.657411e-01 -1.049060e-05 -2.494042e-05 4.541728e-02 -6.629131e-06 -2.361902e-05 1.203238e-01 -3.861473e-06 -1.321401e-06
67             1.653827e-01 -1.078396e-05 -2.524913e-05 4.537995e-02 -6.922181e-06 -2.393221e-05 1.200028e-01 -3.861783e-06 -1.316923e-06
68             1.650296e-01 -1.026353e-05 -2.537950e-05 4.534238e-02 -6.402119e-06 -2.406710e-05 1.196872e-01 -3.861412e-06 -1.312399e-06
69             1.646819e-01 -9.363127e-06 -2.539965e-05 4.530476e-02 -5.502893e-06 -2.409125e-05 1.193772e-01 -3.860234e-06 -1.308399e-06
70             1.643393e-01 -8.433274e-06 -2.541508e-05 4.526680e-02 -4.574874e-06 -2.410959e-05 1.190725e-01 -3.858400e-06 -1.305488e-06
71             1.640013e-01 -7.674704e-06 -2.550914e-05 4.522827e-02 -3.818625e-06 -2.420529e-05 1.187731e-01 -3.856079e-06 -1.303848e-06
72             1.636682e-01 -7.174531e-06 -2.570924e-05 4.518946e-02 -3.320860e-06 -2.440591e-05 1.184787e-01 -3.853672e-06 -1.303339e-06
73             1.633405e-01 -6.929492e-06 -2.599513e-05 4.515111e-02 -3.078248e-06 -2.469148e-05 1.181894e-01 -3.851245e-06 -1.303644e-06
74             1.630191e-01 -6.879577e-06 -2.630740e-05 4.511426e-02 -3.030674e-06 -2.500303e-05 1.179048e-01 -3.848904e-06 -1.304373e-06
75             1.627049e-01 -6.941357e-06 -2.653812e-05 4.507996e-02 -3.095028e-06 -2.523300e-05 1.176249e-01 -3.846328e-06 -1.305126e-06
76             1.623984e-01 -7.046454e-06 -2.654654e-05 4.504868e-02 -3.202730e-06 -2.524097e-05 1.173497e-01 -3.843724e-06 -1.305562e-06
77             1.620990e-01 -7.167071e-06 -2.623998e-05 4.502004e-02 -3.325982e-06 -2.493458e-05 1.170789e-01 -3.841089e-06 -1.305402e-06
78             1.618057e-01 -7.311006e-06 -2.564879e-05 4.499306e-02 -3.472613e-06 -2.434413e-05 1.168126e-01 -3.838393e-06 -1.304656e-06
79             1.615173e-01 -7.503745e-06 -2.490873e-05 4.496680e-02 -3.667907e-06 -2.360554e-05 1.165505e-01 -3.835838e-06 -1.303191e-06
80             1.612332e-01 -7.769094e-06 -2.418801e-05 4.494061e-02 -3.935514e-06 -2.288676e-05 1.162926e-01 -3.833580e-06 -1.301250e-06
81             1.609530e-01 -8.098713e-06 -2.360782e-05 4.491419e-02 -4.266999e-06 -2.230879e-05 1.160388e-01 -3.831714e-06 -1.299031e-06
82             1.606764e-01 -8.467803e-06 -2.323132e-05 4.488743e-02 -4.637627e-06 -2.193464e-05 1.157890e-01 -3.830176e-06 -1.296677e-06
83             1.604034e-01 -8.828434e-06 -2.305648e-05 4.486033e-02 -4.999535e-06 -2.176208e-05 1.155431e-01 -3.828899e-06 -1.294394e-06
84             1.601341e-01 -9.121943e-06 -2.302395e-05 4.483301e-02 -5.294093e-06 -2.173154e-05 1.153011e-01 -3.827850e-06 -1.292416e-06
85             1.598686e-01 -9.285740e-06 -2.305250e-05 4.480561e-02 -5.458836e-06 -2.176199e-05 1.150629e-01 -3.826903e-06 -1.290517e-06
86             1.596069e-01 -9.298220e-06 -2.306998e-05 4.477825e-02 -5.472304e-06 -2.178126e-05 1.148286e-01 -3.825916e-06 -1.288725e-06
87             1.593491e-01 -9.160905e-06 -2.303004e-05 4.475104e-02 -5.336209e-06 -2.174309e-05 1.145980e-01 -3.824696e-06 -1.286951e-06
88             1.590953e-01 -8.909995e-06 -2.292070e-05 4.472408e-02 -5.086908e-06 -2.163558e-05 1.143712e-01 -3.823087e-06 -1.285114e-06
89             1.588454e-01 -8.603131e-06 -2.275727e-05 4.469743e-02 -4.781900e-06 -2.147414e-05 1.141480e-01 -3.821231e-06 -1.283131e-06
90             1.585996e-01 -8.302506e-06 -2.257392e-05 4.467115e-02 -4.483245e-06 -2.129287e-05 1.139284e-01 -3.819260e-06 -1.281054e-06
91             1.583577e-01 -8.060398e-06 -2.240833e-05 4.464527e-02 -4.243050e-06 -2.112935e-05 1.137124e-01 -3.817348e-06 -1.278976e-06
92             1.581199e-01 -7.905834e-06 -2.228916e-05 4.461988e-02 -4.090350e-06 -2.101203e-05 1.135000e-01 -3.815484e-06 -1.277135e-06
93             1.578861e-01 -7.849885e-06 -2.222791e-05 4.459503e-02 -4.036303e-06 -2.095238e-05 1.132910e-01 -3.813582e-06 -1.275526e-06
94             1.576564e-01 -7.875868e-06 -2.221821e-05 4.457082e-02 -4.064214e-06 -2.094425e-05 1.130855e-01 -3.811654e-06 -1.273962e-06
95             1.574308e-01 -7.955260e-06 -2.224071e-05 4.454737e-02 -4.145469e-06 -2.096824e-05 1.128835e-01 -3.809791e-06 -1.272470e-06
96             1.572096e-01 -8.041610e-06 -2.227386e-05 4.452485e-02 -4.233783e-06 -2.100284e-05 1.126848e-01 -3.807826e-06 -1.271014e-06
97             1.569926e-01 -8.116987e-06 -2.228812e-05 4.450322e-02 -4.311191e-06 -2.101837e-05 1.124894e-01 -3.805796e-06 -1.269751e-06
98             1.567798e-01 -8.162362e-06 -2.225505e-05 4.448242e-02 -4.358579e-06 -2.098646e-05 1.122974e-01 -3.803783e-06 -1.268585e-06
99             1.565709e-01 -8.172490e-06 -2.215764e-05 4.446232e-02 -4.370777e-06 -2.089029e-05 1.121086e-01 -3.801713e-06 -1.267342e-06
100            1.563658e-01 -8.156548e-06 -2.199345e-05 4.444276e-02 -4.356832e-06 -2.072755e-05 1.119231e-01 -3.799717e-06 -1.265903e-06
101            1.561643e-01 -8.130727e-06 -2.177298e-05 4.442354e-02 -4.333112e-06 -2.050880e-05 1.117408e-01 -3.797614e-06 -1.264180e-06
102            1.559661e-01 -8.110191e-06 -2.151822e-05 4.440453e-02 -4.314737e-06 -2.025600e-05 1.115616e-01 -3.795454e-06 -1.262223e-06
103            1.557712e-01 -8.104994e-06 -2.125780e-05 4.438562e-02 -4.311675e-06 -1.999774e-05 1.113856e-01 -3.793319e-06 -1.260062e-06
104            1.555794e-01 -8.119861e-06 -2.101655e-05 4.436677e-02 -4.328815e-06 -1.975887e-05 1.112126e-01 -3.791045e-06 -1.257678e-06
105            1.553907e-01 -8.150300e-06 -2.080772e-05 4.434798e-02 -4.361421e-06 -1.955263e-05 1.110427e-01 -3.788880e-06 -1.255097e-06
106            1.552051e-01 -8.193632e-06 -2.064080e-05 4.432925e-02 -4.406885e-06 -1.938825e-05 1.108759e-01 -3.786747e-06 -1.252548e-06
107            1.550227e-01 -8.232123e-06 -2.051396e-05 4.431069e-02 -4.447449e-06 -1.926403e-05 1.107120e-01 -3.784675e-06 -1.249937e-06
108            1.548434e-01 -8.262147e-06 -2.041618e-05 4.429231e-02 -4.479471e-06 -1.916891e-05 1.105511e-01 -3.782676e-06 -1.247266e-06
109            1.546673e-01 -8.274297e-06 -2.033572e-05 4.427421e-02 -4.493662e-06 -1.909112e-05 1.103931e-01 -3.780635e-06 -1.244603e-06
110            1.544944e-01 -8.270783e-06 -2.025799e-05 4.425642e-02 -4.492146e-06 -1.901622e-05 1.102380e-01 -3.778637e-06 -1.241771e-06
111            1.543247e-01 -8.256839e-06 -2.017447e-05 4.423896e-02 -4.480212e-06 -1.893572e-05 1.100857e-01 -3.776626e-06 -1.238749e-06
112            1.541581e-01 -8.239996e-06 -2.008072e-05 4.422185e-02 -4.465388e-06 -1.884521e-05 1.099363e-01 -3.774607e-06 -1.235510e-06
113            1.539947e-01 -8.227890e-06 -1.997542e-05 4.420510e-02 -4.455346e-06 -1.874321e-05 1.097896e-01 -3.772544e-06 -1.232208e-06
114            1.538344e-01 -8.221655e-06 -1.986225e-05 4.418873e-02 -4.451341e-06 -1.863337e-05 1.096457e-01 -3.770314e-06 -1.228884e-06
115            1.536772e-01 -8.231100e-06 -1.973997e-05 4.417272e-02 -4.463044e-06 -1.851436e-05 1.095044e-01 -3.768056e-06 -1.225604e-06
116            1.535230e-01 -8.255819e-06 -1.961063e-05 4.415706e-02 -4.489980e-06 -1.838833e-05 1.093659e-01 -3.765839e-06 -1.222300e-06
117            1.533717e-01 -8.292035e-06 -1.947662e-05 4.414175e-02 -4.528414e-06 -1.825763e-05 1.092300e-01 -3.763621e-06 -1.218990e-06
118            1.532235e-01 -8.332033e-06 -1.933405e-05 4.412682e-02 -4.570612e-06 -1.811839e-05 1.090967e-01 -3.761422e-06 -1.215656e-06
119            1.530781e-01 -8.379879e-06 -1.918112e-05 4.411221e-02 -4.620650e-06 -1.796883e-05 1.089659e-01 -3.759229e-06 -1.212286e-06
120            1.529356e-01 -8.434155e-06 -1.901906e-05 4.409789e-02 -4.677182e-06 -1.781019e-05 1.088377e-01 -3.756972e-06 -1.208870e-06
121            1.527958e-01 -8.492821e-06 -1.885237e-05 4.408383e-02 -4.738232e-06 -1.764696e-05 1.087120e-01 -3.754588e-06 -1.205407e-06
122            1.526587e-01 -8.552544e-06 -1.868396e-05 4.407002e-02 -4.800360e-06 -1.748224e-05 1.085887e-01 -3.752184e-06 -1.201720e-06
123            1.525242e-01 -8.613583e-06 -1.851597e-05 4.405642e-02 -4.863860e-06 -1.731801e-05 1.084678e-01 -3.749723e-06 -1.197956e-06
124            1.523923e-01 -8.677216e-06 -1.835103e-05 4.404301e-02 -4.930066e-06 -1.715693e-05 1.083492e-01 -3.747150e-06 -1.194101e-06
125            1.522628e-01 -8.742696e-06 -1.819037e-05 4.402978e-02 -4.998148e-06 -1.700021e-05 1.082331e-01 -3.744548e-06 -1.190164e-06
126            1.521358e-01 -8.813738e-06 -1.803603e-05 4.401669e-02 -5.071870e-06 -1.684985e-05 1.081192e-01 -3.741868e-06 -1.186182e-06
127            1.520113e-01 -8.881770e-06 -1.788834e-05 4.400375e-02 -5.142526e-06 -1.670623e-05 1.080075e-01 -3.739244e-06 -1.182119e-06
128            1.518891e-01 -8.944826e-06 -1.774906e-05 4.399098e-02 -5.208179e-06 -1.657112e-05 1.078981e-01 -3.736648e-06 -1.177938e-06
129            1.517692e-01 -9.002736e-06 -1.761816e-05 4.397836e-02 -5.268726e-06 -1.644446e-05 1.077908e-01 -3.734010e-06 -1.173704e-06
130            1.516516e-01 -9.056594e-06 -1.749481e-05 4.396591e-02 -5.325253e-06 -1.632538e-05 1.076857e-01 -3.731341e-06 -1.169433e-06
131            1.515364e-01 -9.107535e-06 -1.737656e-05 4.395361e-02 -5.378862e-06 -1.621140e-05 1.075827e-01 -3.728673e-06 -1.165157e-06
132            1.514233e-01 -9.155966e-06 -1.726103e-05 4.394149e-02 -5.430043e-06 -1.610019e-05 1.074818e-01 -3.725924e-06 -1.160842e-06
133            1.513125e-01 -9.203015e-06 -1.714997e-05 4.392953e-02 -5.479926e-06 -1.599350e-05 1.073829e-01 -3.723089e-06 -1.156474e-06
134            1.512038e-01 -9.246085e-06 -1.704309e-05 4.391778e-02 -5.525850e-06 -1.589107e-05 1.072860e-01 -3.720235e-06 -1.152014e-06
135            1.510973e-01 -9.293072e-06 -1.693969e-05 4.390621e-02 -5.575820e-06 -1.579218e-05 1.071911e-01 -3.717252e-06 -1.147513e-06
136            1.509929e-01 -9.345120e-06 -1.683921e-05 4.389483e-02 -5.630855e-06 -1.569625e-05 1.070981e-01 -3.714265e-06 -1.142955e-06
137            1.508907e-01 -9.401740e-06 -1.674201e-05 4.388366e-02 -5.690486e-06 -1.560365e-05 1.070070e-01 -3.711255e-06 -1.138357e-06
138            1.507904e-01 -9.462308e-06 -1.664760e-05 4.387269e-02 -5.753926e-06 -1.551384e-05 1.069178e-01 -3.708382e-06 -1.133752e-06
139            1.506923e-01 -9.525605e-06 -1.655689e-05 4.386194e-02 -5.820001e-06 -1.542777e-05 1.068303e-01 -3.705604e-06 -1.129121e-06
140            1.505961e-01 -9.590274e-06 -1.647010e-05 4.385142e-02 -5.887467e-06 -1.534566e-05 1.067447e-01 -3.702806e-06 -1.124437e-06
141            1.505020e-01 -9.655423e-06 -1.638598e-05 4.384113e-02 -5.955465e-06 -1.526629e-05 1.066608e-01 -3.699958e-06 -1.119692e-06
142            1.504097e-01 -9.720413e-06 -1.630292e-05 4.383106e-02 -6.023313e-06 -1.518801e-05 1.065787e-01 -3.697100e-06 -1.114909e-06
143            1.503194e-01 -9.784955e-06 -1.622056e-05 4.382122e-02 -6.090674e-06 -1.511045e-05 1.064982e-01 -3.694281e-06 -1.110116e-06
144            1.502310e-01 -9.849124e-06 -1.613800e-05 4.381160e-02 -6.157668e-06 -1.503277e-05 1.064194e-01 -3.691457e-06 -1.105222e-06
145            1.501444e-01 -9.913271e-06 -1.605471e-05 4.380219e-02 -6.224599e-06 -1.495445e-05 1.063422e-01 -3.688672e-06 -1.100262e-06
146            1.500596e-01 -9.977835e-06 -1.596916e-05 4.379298e-02 -6.291972e-06 -1.487391e-05 1.062667e-01 -3.685863e-06 -1.095243e-06
147            1.499766e-01 -1.004285e-05 -1.588161e-05 4.378398e-02 -6.359673e-06 -1.479149e-05 1.061926e-01 -3.683173e-06 -1.090118e-06
148            1.498953e-01 -1.010782e-05 -1.579332e-05 4.377518e-02 -6.427360e-06 -1.470841e-05 1.061202e-01 -3.680462e-06 -1.084917e-06
149            1.498158e-01 -1.017245e-05 -1.570518e-05 4.376658e-02 -6.494701e-06 -1.462545e-05 1.060492e-01 -3.677747e-06 -1.079735e-06
150            1.497379e-01 -1.023608e-05 -1.561821e-05 4.375819e-02 -6.561089e-06 -1.454371e-05 1.059797e-01 -3.674994e-06 -1.074506e-06
151            1.496617e-01 -1.029898e-05 -1.553346e-05 4.375001e-02 -6.626865e-06 -1.446425e-05 1.059117e-01 -3.672111e-06 -1.069214e-06
152            1.495871e-01 -1.036098e-05 -1.545165e-05 4.374203e-02 -6.691781e-06 -1.438775e-05 1.058450e-01 -3.669199e-06 -1.063908e-06
153            1.495141e-01 -1.042243e-05 -1.537371e-05 4.373427e-02 -6.756183e-06 -1.431510e-05 1.057798e-01 -3.666247e-06 -1.058612e-06
154            1.494427e-01 -1.048353e-05 -1.529931e-05 4.372672e-02 -6.820266e-06 -1.424604e-05 1.057159e-01 -3.663264e-06 -1.053277e-06
155            1.493728e-01 -1.054400e-05 -1.522705e-05 4.371938e-02 -6.883716e-06 -1.417910e-05 1.056534e-01 -3.660280e-06 -1.047950e-06
156            1.493044e-01 -1.060390e-05 -1.515573e-05 4.371225e-02 -6.946570e-06 -1.411308e-05 1.055922e-01 -3.657334e-06 -1.042651e-06
157            1.492376e-01 -1.066264e-05 -1.508345e-05 4.370534e-02 -7.008244e-06 -1.404610e-05 1.055322e-01 -3.654397e-06 -1.037354e-06
158            1.491722e-01 -1.071988e-05 -1.500894e-05 4.369863e-02 -7.068436e-06 -1.397691e-05 1.054736e-01 -3.651442e-06 -1.032024e-06
159            1.491083e-01 -1.077556e-05 -1.493210e-05 4.369214e-02 -7.127110e-06 -1.390541e-05 1.054161e-01 -3.648447e-06 -1.026691e-06
160            1.490457e-01 -1.082961e-05 -1.485371e-05 4.368586e-02 -7.184252e-06 -1.383234e-05 1.053599e-01 -3.645361e-06 -1.021372e-06
161            1.489846e-01 -1.088217e-05 -1.477509e-05 4.367977e-02 -7.239885e-06 -1.375902e-05 1.053048e-01 -3.642280e-06 -1.016067e-06
162            1.489248e-01 -1.093273e-05 -1.469616e-05 4.367388e-02 -7.293562e-06 -1.368539e-05 1.052510e-01 -3.639165e-06 -1.010768e-06
163            1.488664e-01 -1.098068e-05 -1.461539e-05 4.366818e-02 -7.344629e-06 -1.360991e-05 1.051982e-01 -3.636047e-06 -1.005485e-06
164            1.488092e-01 -1.102585e-05 -1.453265e-05 4.366265e-02 -7.392913e-06 -1.353238e-05 1.051466e-01 -3.632942e-06 -1.000267e-06
165            1.487533e-01 -1.106914e-05 -1.444967e-05 4.365729e-02 -7.439189e-06 -1.345455e-05 1.050960e-01 -3.629947e-06 -9.951187e-07
166            1.486987e-01 -1.111083e-05 -1.436505e-05 4.365210e-02 -7.483877e-06 -1.337499e-05 1.050466e-01 -3.626954e-06 -9.900591e-07
167            1.486452e-01 -1.115084e-05 -1.427659e-05 4.364707e-02 -7.526874e-06 -1.329154e-05 1.049982e-01 -3.623964e-06 -9.850534e-07
168            1.485930e-01 -1.118910e-05 -1.418401e-05 4.364220e-02 -7.568117e-06 -1.320391e-05 1.049508e-01 -3.620981e-06 -9.800982e-07
169            1.485419e-01 -1.122595e-05 -1.408830e-05 4.363749e-02 -7.607948e-06 -1.311312e-05 1.049044e-01 -3.618003e-06 -9.751806e-07
170            1.484920e-01 -1.126180e-05 -1.399014e-05 4.363294e-02 -7.646748e-06 -1.301983e-05 1.048591e-01 -3.615048e-06 -9.703121e-07
171            1.484432e-01 -1.129647e-05 -1.388864e-05 4.362855e-02 -7.684338e-06 -1.292315e-05 1.048147e-01 -3.612128e-06 -9.654840e-07
172            1.483955e-01 -1.132986e-05 -1.378387e-05 4.362431e-02 -7.720620e-06 -1.282312e-05 1.047712e-01 -3.609245e-06 -9.607435e-07
173            1.483490e-01 -1.136150e-05 -1.367455e-05 4.362023e-02 -7.755101e-06 -1.271844e-05 1.047287e-01 -3.606403e-06 -9.561084e-07
174            1.483034e-01 -1.139069e-05 -1.355828e-05 4.361629e-02 -7.787131e-06 -1.260675e-05 1.046872e-01 -3.603554e-06 -9.515262e-07
175            1.482590e-01 -1.141758e-05 -1.343455e-05 4.361251e-02 -7.816841e-06 -1.248758e-05 1.046465e-01 -3.600742e-06 -9.469690e-07
176            1.482156e-01 -1.144196e-05 -1.330338e-05 4.360887e-02 -7.843993e-06 -1.236093e-05 1.046067e-01 -3.597970e-06 -9.424495e-07
177            1.481732e-01 -1.146372e-05 -1.316557e-05 4.360538e-02 -7.868445e-06 -1.222758e-05 1.045678e-01 -3.595280e-06 -9.379944e-07
178            1.481318e-01 -1.148279e-05 -1.302199e-05 4.360204e-02 -7.890168e-06 -1.208838e-05 1.045297e-01 -3.592620e-06 -9.336061e-07
179            1.480913e-01 -1.149951e-05 -1.287359e-05 4.359884e-02 -7.909530e-06 -1.194432e-05 1.044925e-01 -3.589980e-06 -9.292796e-07
180            1.480519e-01 -1.151441e-05 -1.272134e-05 4.359578e-02 -7.927048e-06 -1.179635e-05 1.044561e-01 -3.587359e-06 -9.249979e-07
181            1.480134e-01 -1.152790e-05 -1.256601e-05 4.359287e-02 -7.943122e-06 -1.164524e-05 1.044205e-01 -3.584783e-06 -9.207711e-07
182            1.479758e-01 -1.153987e-05 -1.240768e-05 4.359009e-02 -7.957642e-06 -1.149109e-05 1.043857e-01 -3.582226e-06 -9.165918e-07
183            1.479392e-01 -1.155036e-05 -1.224701e-05 4.358745e-02 -7.970667e-06 -1.133455e-05 1.043517e-01 -3.579690e-06 -9.124642e-07
184            1.479034e-01 -1.155952e-05 -1.208455e-05 4.358494e-02 -7.982329e-06 -1.117615e-05 1.043185e-01 -3.577190e-06 -9.084068e-07
185            1.478686e-01 -1.156761e-05 -1.192067e-05 4.358255e-02 -7.992891e-06 -1.101628e-05 1.042860e-01 -3.574722e-06 -9.043861e-07
186            1.478345e-01 -1.157481e-05 -1.175550e-05 4.358029e-02 -8.002551e-06 -1.085510e-05 1.042543e-01 -3.572256e-06 -9.004073e-07
187            1.478014e-01 -1.158140e-05 -1.158868e-05 4.357815e-02 -8.011610e-06 -1.069221e-05 1.042232e-01 -3.569791e-06 -8.964649e-07
188            1.477691e-01 -1.158801e-05 -1.142048e-05 4.357613e-02 -8.020679e-06 -1.052791e-05 1.041929e-01 -3.567336e-06 -8.925686e-07
189            1.477376e-01 -1.159532e-05 -1.125169e-05 4.357422e-02 -8.030439e-06 -1.036299e-05 1.041633e-01 -3.564883e-06 -8.886980e-07
190            1.477069e-01 -1.160331e-05 -1.108199e-05 4.357242e-02 -8.040880e-06 -1.019713e-05 1.041344e-01 -3.562427e-06 -8.848682e-07
191            1.476769e-01 -1.161178e-05 -1.091089e-05 4.357073e-02 -8.051783e-06 -1.002982e-05 1.041062e-01 -3.560001e-06 -8.810737e-07
192            1.476478e-01 -1.162070e-05 -1.073812e-05 4.356916e-02 -8.063119e-06 -9.860809e-06 1.040786e-01 -3.557582e-06 -8.773118e-07
193            1.476194e-01 -1.163008e-05 -1.056376e-05 4.356768e-02 -8.074922e-06 -9.690174e-06 1.040517e-01 -3.555161e-06 -8.735827e-07
194            1.475918e-01 -1.163989e-05 -1.038825e-05 4.356632e-02 -8.087157e-06 -9.518369e-06 1.040255e-01 -3.552731e-06 -8.698786e-07
195            1.475649e-01 -1.165014e-05 -1.021212e-05 4.356505e-02 -8.099883e-06 -9.345951e-06 1.039998e-01 -3.550262e-06 -8.661726e-07
196            1.475387e-01 -1.166137e-05 -1.003584e-05 4.356389e-02 -8.113573e-06 -9.173325e-06 1.039748e-01 -3.547795e-06 -8.625156e-07
197            1.475132e-01 -1.167405e-05 -9.859773e-06 4.356282e-02 -8.128724e-06 -9.000883e-06 1.039504e-01 -3.545322e-06 -8.588893e-07
198            1.474884e-01 -1.168852e-05 -9.684418e-06 4.356184e-02 -8.145676e-06 -8.829131e-06 1.039265e-01 -3.542841e-06 -8.552867e-07
199            1.474643e-01 -1.170500e-05 -9.510930e-06 4.356096e-02 -8.164648e-06 -8.659212e-06 1.039033e-01 -3.540356e-06 -8.517175e-07
200            1.474408e-01 -1.172444e-05 -9.340819e-06 4.356016e-02 -8.186593e-06 -8.492629e-06 1.038806e-01 -3.537849e-06 -8.481896e-07
201            1.474180e-01 -1.174701e-05 -9.174087e-06 4.355945e-02 -8.211678e-06 -8.329393e-06 1.038585e-01 -3.535334e-06 -8.446940e-07
202            1.473958e-01 -1.177235e-05 -9.009318e-06 4.355882e-02 -8.239531e-06 -8.168111e-06 1.038370e-01 -3.532820e-06 -8.412068e-07
203            1.473742e-01 -1.179987e-05 -8.845864e-06 4.355826e-02 -8.269546e-06 -8.008159e-06 1.038160e-01 -3.530322e-06 -8.377053e-07
204            1.473532e-01 -1.182924e-05 -8.683431e-06 4.355777e-02 -8.301401e-06 -7.849221e-06 1.037955e-01 -3.527838e-06 -8.342107e-07
205            1.473329e-01 -1.186030e-05 -8.522113e-06 4.355736e-02 -8.334945e-06 -7.691403e-06 1.037755e-01 -3.525356e-06 -8.307101e-07
206            1.473131e-01 -1.189308e-05 -8.362433e-06 4.355702e-02 -8.370204e-06 -7.535232e-06 1.037560e-01 -3.522878e-06 -8.272010e-07
207            1.472938e-01 -1.192793e-05 -8.204917e-06 4.355674e-02 -8.407530e-06 -7.381223e-06 1.037371e-01 -3.520398e-06 -8.236938e-07
208            1.472751e-01 -1.196506e-05 -8.049962e-06 4.355653e-02 -8.447132e-06 -7.229813e-06 1.037186e-01 -3.517930e-06 -8.201492e-07
209            1.472570e-01 -1.200472e-05 -7.898075e-06 4.355638e-02 -8.489247e-06 -7.081471e-06 1.037006e-01 -3.515470e-06 -8.166038e-07
210            1.472394e-01 -1.204704e-05 -7.749737e-06 4.355629e-02 -8.534021e-06 -6.936675e-06 1.036831e-01 -3.513015e-06 -8.130618e-07
211            1.472223e-01 -1.209203e-05 -7.605555e-06 4.355626e-02 -8.581455e-06 -6.796042e-06 1.036660e-01 -3.510574e-06 -8.095128e-07
212            1.472057e-01 -1.213965e-05 -7.466085e-06 4.355628e-02 -8.631508e-06 -6.660118e-06 1.036494e-01 -3.508143e-06 -8.059671e-07
213            1.471896e-01 -1.218990e-05 -7.331565e-06 4.355635e-02 -8.684166e-06 -6.529118e-06 1.036332e-01 -3.505736e-06 -8.024466e-07
214            1.471739e-01 -1.224277e-05 -7.202067e-06 4.355647e-02 -8.739431e-06 -6.403128e-06 1.036174e-01 -3.503342e-06 -7.989396e-07
215            1.471587e-01 -1.229820e-05 -7.077638e-06 4.355663e-02 -8.797237e-06 -6.282191e-06 1.036021e-01 -3.500960e-06 -7.954473e-07
216            1.471440e-01 -1.235605e-05 -6.958286e-06 4.355683e-02 -8.857455e-06 -6.166317e-06 1.035872e-01 -3.498600e-06 -7.919685e-07