/*--------------------------------*- C++ -*----------------------------------*\
| =========                 |                                                 |
| \\      /  F ield         | OpenFOAM: The Open Source CFD Toolbox           |
|  \\    /   O peration     | Version:  2512                                  |
|   \\  /    A nd           | Website:  www.openfoam.com                      |
|    \\/     M anipulation  |                                                 |
\*---------------------------------------------------------------------------*/
FoamFile
{
    version     2.0;
    format      ascii;
    arch        "LSB;label=32;scalar=64";
    class       volScalarField;
    location    "126";
    object      p;
}
// * * * * * * * * * * * * * * * * * * * * * * * * * * * * * * * * * * * * * //

dimensions      [0 2 -2 0 0 0 0];

internalField   nonuniform List<scalar> 
240106
(
3.9798e-05
3.97438e-05
3.96049e-05
3.9382e-05
3.90716e-05
3.8661e-05
3.81326e-05
3.74655e-05
3.66343e-05
3.56091e-05
3.43553e-05
3.28335e-05
3.09998e-05
2.88076e-05
2.62081e-05
2.31539e-05
1.96019e-05
1.55184e-05
1.08852e-05
5.70675e-06
1.76842e-08
-6.10952e-06
-1.25586e-05
-1.91668e-05
-2.57266e-05
-3.19949e-05
-3.77091e-05
-4.26101e-05
-4.64701e-05
-4.91205e-05
-5.04745e-05
-5.05382e-05
-4.94091e-05
-4.72593e-05
-4.43095e-05
-4.07999e-05
-3.69629e-05
-3.30042e-05
-2.90915e-05
-2.53511e-05
-2.18699e-05
-1.87002e-05
-1.58665e-05
-1.33718e-05
-1.1204e-05
-9.34107e-06
-7.75531e-06
-6.4164e-06
-5.29376e-06
-4.35803e-06
-3.58204e-06
-2.94124e-06
-2.41395e-06
-1.98128e-06
-1.627e-06
-1.33737e-06
-1.1008e-06
-9.07684e-07
-7.50041e-07
-6.21309e-07
-5.16092e-07
-4.29964e-07
-3.59316e-07
-3.01215e-07
-2.53299e-07
-2.13669e-07
-1.80803e-07
-1.53466e-07
-1.30646e-07
-1.11497e-07
-9.5308e-08
-8.14765e-08
-6.94952e-08
-5.8935e-08
-4.94389e-08
-4.07076e-08
-3.24907e-08
-2.45672e-08
-1.66452e-08
-9.41652e-09
3.98136e-05
3.97598e-05
3.96223e-05
3.94015e-05
3.90939e-05
3.8687e-05
3.81633e-05
3.75018e-05
3.66772e-05
3.56597e-05
3.44146e-05
3.29022e-05
3.10788e-05
2.88971e-05
2.63079e-05
2.32627e-05
1.97176e-05
1.56375e-05
1.10026e-05
5.81552e-06
1.09473e-07
-6.04435e-06
-1.25302e-05
-1.91846e-05
-2.57982e-05
-3.2124e-05
-3.78944e-05
-4.28444e-05
-4.67402e-05
-4.94086e-05
-5.07604e-05
-5.08026e-05
-4.9636e-05
-4.74383e-05
-4.44365e-05
-4.08762e-05
-3.69942e-05
-3.29984e-05
-2.90574e-05
-2.52973e-05
-2.18039e-05
-1.86283e-05
-1.57933e-05
-1.33008e-05
-1.11375e-05
-9.28046e-06
-7.70119e-06
-6.36889e-06
-5.25264e-06
-4.32286e-06
-3.55225e-06
-2.91623e-06
-2.3931e-06
-1.96401e-06
-1.61279e-06
-1.32572e-06
-1.0913e-06
-8.99961e-07
-7.43788e-07
-6.16264e-07
-5.12037e-07
-4.26717e-07
-3.56722e-07
-2.99146e-07
-2.51649e-07
-2.12355e-07
-1.79757e-07
-1.52635e-07
-1.29989e-07
-1.10979e-07
-9.49001e-08
-8.11537e-08
-6.92355e-08
-5.87207e-08
-4.9256e-08
-4.05468e-08
-3.23466e-08
-2.44387e-08
-1.65443e-08
-9.30698e-09
3.98441e-05
3.97914e-05
3.96565e-05
3.94399e-05
3.9138e-05
3.87385e-05
3.82239e-05
3.75734e-05
3.67618e-05
3.57595e-05
3.45315e-05
3.30381e-05
3.1235e-05
2.90741e-05
2.65052e-05
2.34783e-05
1.9947e-05
1.58738e-05
1.12357e-05
6.03204e-06
2.92697e-07
-5.91359e-06
-1.24722e-05
-1.92184e-05
-2.59387e-05
-3.23792e-05
-3.82619e-05
-4.33097e-05
-4.72772e-05
-4.99817e-05
-5.13293e-05
-5.13284e-05
-5.00871e-05
-4.77939e-05
-4.46883e-05
-4.10272e-05
-3.70556e-05
-3.29862e-05
-2.89893e-05
-2.51902e-05
-2.16728e-05
-1.84854e-05
-1.56481e-05
-1.31601e-05
-1.10058e-05
-9.16038e-06
-7.59399e-06
-6.27482e-06
-5.17123e-06
-4.25323e-06
-3.49328e-06
-2.86671e-06
-2.35183e-06
-1.92984e-06
-1.58465e-06
-1.30266e-06
-1.07248e-06
-8.84661e-07
-7.31395e-07
-6.06264e-07
-5.03999e-07
-4.20279e-07
-3.51579e-07
-2.95044e-07
-2.48381e-07
-2.09753e-07
-1.77691e-07
-1.51002e-07
-1.28706e-07
-1.09979e-07
-9.41256e-08
-8.05533e-08
-6.87652e-08
-5.8344e-08
-4.89453e-08
-4.02826e-08
-3.21179e-08
-2.42434e-08
-1.6393e-08
-9.21345e-09
3.9889e-05
3.98378e-05
3.97068e-05
3.94964e-05
3.92029e-05
3.88141e-05
3.8313e-05
3.76787e-05
3.68865e-05
3.59065e-05
3.47038e-05
3.32385e-05
3.14654e-05
2.93356e-05
2.6797e-05
2.37974e-05
2.02871e-05
1.62247e-05
1.15825e-05
6.35491e-06
5.66856e-07
-5.71673e-06
-1.23829e-05
-1.92655e-05
-2.61452e-05
-3.2757e-05
-3.88079e-05
-4.40026e-05
-4.80778e-05
-5.08364e-05
-5.21776e-05
-5.21117e-05
-5.07576e-05
-4.83208e-05
-4.50598e-05
-4.12482e-05
-3.71433e-05
-3.29649e-05
-2.88853e-05
-2.50291e-05
-2.14767e-05
-1.82725e-05
-1.54324e-05
-1.29515e-05
-1.08108e-05
-8.98281e-06
-7.43565e-06
-6.13598e-06
-5.05118e-06
-4.15063e-06
-3.40645e-06
-2.79385e-06
-2.29113e-06
-1.87959e-06
-1.54329e-06
-1.26877e-06
-1.04483e-06
-8.62177e-07
-7.13182e-07
-5.91568e-07
-4.92184e-07
-4.10812e-07
-3.44013e-07
-2.89007e-07
-2.43568e-07
-2.05921e-07
-1.74648e-07
-1.486e-07
-1.26825e-07
-1.08518e-07
-9.2998e-08
-7.9683e-08
-6.80861e-08
-5.78018e-08
-4.84983e-08
-3.99027e-08
-3.17895e-08
-2.3964e-08
-1.61776e-08
-9.09838e-09
3.99472e-05
3.98979e-05
3.97719e-05
3.95695e-05
3.92869e-05
3.89122e-05
3.84285e-05
3.78154e-05
3.70483e-05
3.60974e-05
3.49278e-05
3.34991e-05
3.17655e-05
2.96764e-05
2.71779e-05
2.42144e-05
2.07324e-05
1.66851e-05
1.20388e-05
6.78104e-06
9.30393e-07
-5.45353e-06
-1.22603e-05
-1.93221e-05
-2.64119e-05
-3.32508e-05
-3.95251e-05
-4.49156e-05
-4.91344e-05
-5.19653e-05
-5.32974e-05
-5.31441e-05
-5.1639e-05
-4.90107e-05
-4.55431e-05
-4.15325e-05
-3.72523e-05
-3.29312e-05
-2.87443e-05
-2.48142e-05
-2.12172e-05
-1.79922e-05
-1.51492e-05
-1.26783e-05
-1.05559e-05
-8.75116e-06
-7.22936e-06
-5.95532e-06
-4.89512e-06
-4.01735e-06
-3.29373e-06
-2.69932e-06
-2.21243e-06
-1.81448e-06
-1.48971e-06
-1.22488e-06
-1.00902e-06
-8.33073e-07
-6.89614e-07
-5.72556e-07
-4.76907e-07
-3.98578e-07
-3.3424e-07
-2.81212e-07
-2.37358e-07
-2.00983e-07
-1.70737e-07
-1.45523e-07
-1.24426e-07
-1.06667e-07
-9.15807e-08
-7.85986e-08
-6.72477e-08
-5.71383e-08
-4.79563e-08
-3.94468e-08
-3.14011e-08
-2.36415e-08
-1.59404e-08
-8.99125e-09
4.00171e-05
3.99702e-05
3.98503e-05
3.96574e-05
3.9388e-05
3.90302e-05
3.85677e-05
3.79802e-05
3.72435e-05
3.6328e-05
3.51986e-05
3.38144e-05
3.2129e-05
3.00899e-05
2.76407e-05
2.47222e-05
2.12758e-05
1.72484e-05
1.25988e-05
7.30632e-06
1.38115e-06
-5.12382e-06
-1.21018e-05
-1.9383e-05
-2.67318e-05
-3.38516e-05
-4.04039e-05
-4.60386e-05
-5.0437e-05
-5.33579e-05
-5.46783e-05
-5.44149e-05
-5.27203e-05
-4.98527e-05
-4.61283e-05
-4.18718e-05
-3.73764e-05
-3.28814e-05
-2.85646e-05
-2.45461e-05
-2.08964e-05
-1.76475e-05
-1.48025e-05
-1.23448e-05
-1.02456e-05
-8.46966e-06
-6.97911e-06
-5.73646e-06
-4.70628e-06
-3.85625e-06
-3.15761e-06
-2.58523e-06
-2.1175e-06
-1.73598e-06
-1.42513e-06
-1.172e-06
-9.65886e-07
-7.98013e-07
-6.61221e-07
-5.49649e-07
-4.58495e-07
-3.83825e-07
-3.22445e-07
-2.71792e-07
-2.2984e-07
-1.94993e-07
-1.65982e-07
-1.41771e-07
-1.21491e-07
-1.04392e-07
-8.98255e-08
-7.72413e-08
-6.61829e-08
-5.62805e-08
-4.72423e-08
-3.88356e-08
-3.08727e-08
-2.31963e-08
-1.5603e-08
-8.81894e-09
4.0097e-05
4.00528e-05
3.99399e-05
3.97581e-05
3.95037e-05
3.91655e-05
3.87272e-05
3.81693e-05
3.74676e-05
3.65929e-05
3.551e-05
3.41777e-05
3.25482e-05
3.05676e-05
2.81764e-05
2.53113e-05
2.19079e-05
1.79058e-05
1.32549e-05
7.9246e-06
1.91533e-06
-4.72851e-06
-1.19049e-05
-1.94427e-05
-2.7096e-05
-3.45485e-05
-4.14313e-05
-4.73577e-05
-5.1971e-05
-5.49998e-05
-5.63053e-05
-5.59088e-05
-5.39864e-05
-5.08324e-05
-4.68027e-05
-4.22558e-05
-3.75084e-05
-3.28114e-05
-2.83451e-05
-2.42259e-05
-2.05174e-05
-1.72431e-05
-1.43975e-05
-1.19567e-05
-9.88557e-06
-8.14384e-06
-6.69004e-06
-5.48409e-06
-4.48885e-06
-3.67099e-06
-3.00123e-06
-2.45431e-06
-2.00866e-06
-1.64604e-06
-1.3512e-06
-1.1115e-06
-9.16558e-07
-7.57943e-07
-6.28792e-07
-5.23509e-07
-4.37504e-07
-3.67025e-07
-3.09028e-07
-2.6109e-07
-2.21311e-07
-1.8821e-07
-1.60612e-07
-1.37552e-07
-1.18211e-07
-1.01869e-07
-8.79013e-08
-7.5775e-08
-6.50538e-08
-5.53917e-08
-4.65228e-08
-3.82404e-08
-3.03811e-08
-2.28099e-08
-1.53457e-08
-8.73289e-09
4.01848e-05
4.01437e-05
4.00385e-05
3.98689e-05
3.96313e-05
3.93146e-05
3.89033e-05
3.83781e-05
3.77153e-05
3.6886e-05
3.5855e-05
3.45807e-05
3.30141e-05
3.10995e-05
2.87743e-05
2.59703e-05
2.26172e-05
1.8646e-05
1.39968e-05
8.62768e-06
2.52738e-06
-4.26973e-06
-1.16677e-05
-1.94948e-05
-2.74945e-05
-3.53276e-05
-4.25909e-05
-4.88545e-05
-5.37173e-05
-5.6871e-05
-5.81584e-05
-5.7606e-05
-5.54179e-05
-5.19321e-05
-4.75511e-05
-4.2673e-05
-3.76406e-05
-3.27173e-05
-2.80854e-05
-2.38562e-05
-2.00848e-05
-1.67848e-05
-1.39411e-05
-1.15211e-05
-9.48275e-06
-7.7803e-06
-6.36824e-06
-5.20368e-06
-4.24765e-06
-3.46574e-06
-2.82818e-06
-2.30956e-06
-1.88841e-06
-1.54676e-06
-1.26963e-06
-1.04476e-06
-8.62156e-07
-7.13749e-07
-5.93024e-07
-4.9467e-07
-4.14338e-07
-3.48469e-07
-2.94188e-07
-2.49227e-07
-2.11827e-07
-1.80635e-07
-1.54583e-07
-1.32783e-07
-1.1447e-07
-9.89568e-08
-8.56423e-08
-7.40136e-08
-6.36572e-08
-5.42535e-08
-4.55656e-08
-3.74159e-08
-2.96676e-08
-2.221e-08
-1.48888e-08
-8.48361e-09
4.02785e-05
4.02407e-05
4.01436e-05
3.99871e-05
3.97674e-05
3.94739e-05
3.90915e-05
3.86015e-05
3.79808e-05
3.72005e-05
3.62257e-05
3.50142e-05
3.35163e-05
3.1674e-05
2.94215e-05
2.66859e-05
2.33897e-05
1.94555e-05
1.48119e-05
9.40461e-06
3.20924e-06
-3.75165e-06
-1.13899e-05
-1.95338e-05
-2.7916e-05
-3.61728e-05
-4.38625e-05
-5.0506e-05
-5.56506e-05
-5.89455e-05
-6.02115e-05
-5.94809e-05
-5.69911e-05
-5.31308e-05
-4.83564e-05
-4.31107e-05
-3.77651e-05
-3.2596e-05
-2.77864e-05
-2.3441e-05
-1.96049e-05
-1.62803e-05
-1.34415e-05
-1.10465e-05
-9.04544e-06
-7.3868e-06
-6.02079e-06
-4.90155e-06
-3.98823e-06
-3.24534e-06
-2.64261e-06
-2.15453e-06
-1.75978e-06
-1.44065e-06
-1.18255e-06
-9.73578e-07
-8.0418e-07
-6.667e-07
-5.54987e-07
-4.64048e-07
-3.89785e-07
-3.28843e-07
-2.7853e-07
-2.36742e-07
-2.01879e-07
-1.72725e-07
-1.48326e-07
-1.2788e-07
-1.10675e-07
-9.60589e-08
-8.34546e-08
-7.23702e-08
-6.24172e-08
-5.33047e-08
-4.4827e-08
-3.68372e-08
-2.92257e-08
-2.19047e-08
-1.47375e-08
-8.50181e-09
4.03756e-05
4.03411e-05
4.02527e-05
4.01098e-05
3.99088e-05
3.96395e-05
3.92873e-05
3.88342e-05
3.82575e-05
3.75287e-05
3.66131e-05
3.54682e-05
3.40431e-05
3.2278e-05
3.01037e-05
2.74423e-05
2.42093e-05
2.03176e-05
1.56844e-05
1.02415e-05
3.94999e-06
-3.18094e-06
-1.10724e-05
-1.95543e-05
-2.83485e-05
-3.70656e-05
-4.52216e-05
-5.22831e-05
-5.77391e-05
-6.119e-05
-6.24312e-05
-6.15016e-05
-5.86769e-05
-5.44036e-05
-4.91992e-05
-4.35557e-05
-3.78751e-05
-3.2446e-05
-2.74509e-05
-2.29864e-05
-1.90859e-05
-1.57392e-05
-1.29089e-05
-1.05428e-05
-8.58314e-06
-6.97212e-06
-5.65559e-06
-4.58469e-06
-3.71667e-06
-3.01497e-06
-2.44889e-06
-1.99287e-06
-1.62577e-06
-1.3302e-06
-1.09193e-06
-8.99528e-07
-7.43869e-07
-6.17741e-07
-5.1539e-07
-4.32147e-07
-3.64175e-07
-3.08332e-07
-2.62112e-07
-2.23589e-07
-1.9133e-07
-1.64266e-07
-1.41563e-07
-1.22505e-07
-1.06434e-07
-9.27333e-08
-8.08483e-08
-7.03103e-08
-6.07574e-08
-5.19299e-08
-4.36555e-08
-3.58188e-08
-2.83379e-08
-2.1149e-08
-1.41423e-08
-8.13854e-09
4.04736e-05
4.04425e-05
4.03628e-05
4.02338e-05
4.00519e-05
3.98071e-05
3.94858e-05
3.90703e-05
3.85386e-05
3.78627e-05
3.70079e-05
3.59316e-05
3.45819e-05
3.28972e-05
3.08049e-05
2.82221e-05
2.50572e-05
2.12134e-05
1.65956e-05
1.11211e-05
4.73534e-06
-2.56739e-06
-1.07192e-05
-1.95527e-05
-2.87801e-05
-3.79852e-05
-4.66396e-05
-5.41507e-05
-5.99432e-05
-6.35628e-05
-6.47761e-05
-6.36294e-05
-6.04411e-05
-5.57225e-05
-5.00588e-05
-4.3995e-05
-3.79645e-05
-3.22674e-05
-2.70839e-05
-2.25008e-05
-1.85384e-05
-1.51731e-05
-1.23551e-05
-1.00216e-05
-8.1066e-06
-6.54607e-06
-5.28142e-06
-4.26082e-06
-3.43966e-06
-2.7804e-06
-2.25195e-06
-1.82876e-06
-1.48993e-06
-1.21839e-06
-1.00033e-06
-8.24773e-07
-6.83071e-07
-5.68473e-07
-4.7563e-07
-4.00205e-07
-3.38622e-07
-2.87953e-07
-2.45883e-07
-2.1067e-07
-1.81054e-07
-1.56121e-07
-1.35157e-07
-1.17532e-07
-1.0264e-07
-8.98935e-08
-7.87607e-08
-6.87963e-08
-5.96674e-08
-5.11481e-08
-4.31009e-08
-3.54421e-08
-2.81164e-08
-2.10786e-08
-1.42253e-08
-8.34738e-09
4.05699e-05
4.05423e-05
4.04712e-05
4.0356e-05
4.01929e-05
3.99726e-05
3.96819e-05
3.93039e-05
3.8817e-05
3.8194e-05
3.74001e-05
3.63927e-05
3.51193e-05
3.35161e-05
3.15077e-05
2.90062e-05
2.59129e-05
2.21213e-05
1.75238e-05
1.20229e-05
5.54744e-06
-1.92427e-06
-1.03368e-05
-1.95271e-05
-2.91988e-05
-3.89092e-05
-4.80839e-05
-5.60675e-05
-6.22153e-05
-6.60134e-05
-6.71962e-05
-6.58179e-05
-6.22438e-05
-5.70564e-05
-5.09136e-05
-4.44163e-05
-3.80295e-05
-3.20631e-05
-2.66931e-05
-2.1995e-05
-1.79751e-05
-1.45955e-05
-1.17934e-05
-9.49558e-06
-7.6275e-06
-6.11912e-06
-4.90748e-06
-3.93789e-06
-3.16397e-06
-2.54732e-06
-2.05651e-06
-1.66609e-06
-1.35539e-06
-1.10771e-06
-9.09689e-07
-7.50786e-07
-6.22862e-07
-5.19634e-07
-4.36161e-07
-3.68431e-07
-3.13122e-07
-2.67516e-07
-2.2949e-07
-1.97487e-07
-1.70429e-07
-1.47558e-07
-1.28281e-07
-1.12045e-07
-9.82905e-08
-8.64576e-08
-7.60332e-08
-6.65965e-08
-5.78461e-08
-4.95929e-08
-4.17367e-08
-3.42268e-08
-2.70337e-08
-2.01325e-08
-1.34457e-08
-7.82044e-09
4.06622e-05
4.06378e-05
4.05751e-05
4.04732e-05
4.03283e-05
4.01316e-05
3.98706e-05
3.95289e-05
3.90857e-05
3.8514e-05
3.77797e-05
3.68399e-05
3.56413e-05
3.41188e-05
3.21939e-05
2.97742e-05
2.6754e-05
2.30175e-05
1.84447e-05
1.29231e-05
6.36488e-06
-1.26854e-06
-9.93529e-06
-1.94784e-05
-2.9594e-05
-3.98143e-05
-4.95182e-05
-5.79859e-05
-6.44997e-05
-6.8482e-05
-6.96325e-05
-6.80135e-05
-6.40405e-05
-5.83717e-05
-5.17417e-05
-4.48088e-05
-3.80685e-05
-3.18386e-05
-2.6289e-05
-2.14827e-05
-1.7411e-05
-1.40216e-05
-1.12388e-05
-8.97857e-06
-7.1585e-06
-5.70255e-06
-4.54368e-06
-3.62448e-06
-2.897e-06
-2.32203e-06
-1.86797e-06
-1.50943e-06
-1.22607e-06
-1.00154e-06
-8.22901e-07
-6.801e-07
-5.65485e-07
-4.73243e-07
-3.9883e-07
-3.38548e-07
-2.89312e-07
-2.486e-07
-2.14479e-07
-1.8558e-07
-1.61005e-07
-1.40151e-07
-1.2254e-07
-1.07692e-07
-9.50825e-08
-8.41701e-08
-7.44579e-08
-6.55487e-08
-5.71748e-08
-4.91873e-08
-4.15257e-08
-3.41728e-08
-2.7123e-08
-2.03637e-08
-1.38098e-08
-8.24941e-09
4.07479e-05
4.07266e-05
4.06718e-05
4.05823e-05
4.04545e-05
4.02801e-05
4.0047e-05
3.97396e-05
3.93376e-05
3.88145e-05
3.81367e-05
3.72611e-05
3.61341e-05
3.46891e-05
3.28448e-05
3.05048e-05
2.7557e-05
2.38765e-05
1.93316e-05
1.37953e-05
7.16305e-06
-6.20647e-07
-9.52829e-06
-1.94101e-05
-2.99567e-05
-4.06766e-05
-5.09035e-05
-5.9853e-05
-6.67331e-05
-7.09005e-05
-7.20181e-05
-7.01562e-05
-6.57823e-05
-5.96334e-05
-5.25222e-05
-4.5164e-05
-3.80828e-05
-3.16024e-05
-2.58849e-05
-2.09796e-05
-1.6863e-05
-1.34682e-05
-1.07068e-05
-8.485e-06
-6.71239e-06
-5.30754e-06
-4.19959e-06
-3.32868e-06
-2.64547e-06
-2.11008e-06
-1.69077e-06
-1.36233e-06
-1.10471e-06
-9.01923e-07
-7.41442e-07
-6.13679e-07
-5.1147e-07
-4.29455e-07
-3.63471e-07
-3.10105e-07
-2.66489e-07
-2.30284e-07
-1.99733e-07
-1.73654e-07
-1.51327e-07
-1.32302e-07
-1.16209e-07
-1.02626e-07
-9.10578e-08
-8.09719e-08
-7.18824e-08
-6.3415e-08
-5.53376e-08
-4.75445e-08
-4.00177e-08
-3.27751e-08
-2.58355e-08
-1.92026e-08
-1.28161e-08
-7.53623e-09
4.08249e-05
4.08064e-05
4.07587e-05
4.06805e-05
4.05683e-05
4.04141e-05
4.02065e-05
3.99303e-05
3.95659e-05
3.90874e-05
3.84614e-05
3.7645e-05
3.65841e-05
3.52108e-05
3.34419e-05
3.11769e-05
2.8298e-05
2.46721e-05
2.01568e-05
1.46111e-05
7.9149e-06
-4.00762e-09
-9.13251e-06
-1.93289e-05
-3.028e-05
-4.14731e-05
-5.21994e-05
-6.16122e-05
-6.88467e-05
-7.31937e-05
-7.42791e-05
-7.21806e-05
-6.74178e-05
-6.0806e-05
-5.32353e-05
-4.54756e-05
-3.80768e-05
-3.1366e-05
-2.54965e-05
-2.05037e-05
-1.63494e-05
-1.2953e-05
-1.02143e-05
-8.02989e-06
-6.30253e-06
-4.94574e-06
-3.8853e-06
-3.05917e-06
-2.4168e-06
-1.9178e-06
-1.53038e-06
-1.22951e-06
-9.9542e-07
-8.12476e-07
-6.68535e-07
-5.54451e-07
-4.63523e-07
-3.90819e-07
-3.32524e-07
-2.8548e-07
-2.47003e-07
-2.14913e-07
-1.87619e-07
-1.64114e-07
-1.4385e-07
-1.2652e-07
-1.1185e-07
-9.94709e-08
-8.88993e-08
-7.96042e-08
-7.11051e-08
-6.3048e-08
-5.52371e-08
-4.76118e-08
-4.01988e-08
-3.30515e-08
-2.6211e-08
-1.96882e-08
-1.34037e-08
-8.13591e-09
4.08909e-05
4.08749e-05
4.08334e-05
4.07651e-05
4.06666e-05
4.05301e-05
4.03447e-05
4.00959e-05
3.97645e-05
3.93252e-05
3.87448e-05
3.79806e-05
3.69783e-05
3.5669e-05
3.39674e-05
3.17699e-05
2.89537e-05
2.53786e-05
2.08923e-05
1.53417e-05
8.59214e-06
5.56112e-07
-8.76707e-06
-1.9244e-05
-3.05595e-05
-4.21823e-05
-5.33657e-05
-6.32053e-05
-7.07682e-05
-7.52824e-05
-7.63377e-05
-7.40185e-05
-6.88943e-05
-6.18551e-05
-5.38637e-05
-4.57404e-05
-3.80574e-05
-3.11429e-05
-2.51409e-05
-2.00735e-05
-1.58888e-05
-1.24936e-05
-9.77708e-06
-7.62739e-06
-5.94114e-06
-4.62756e-06
-3.60949e-06
-2.82309e-06
-2.21677e-06
-1.74979e-06
-1.39034e-06
-1.1136e-06
-9.00053e-07
-7.34381e-07
-6.04787e-07
-5.02525e-07
-4.2132e-07
-3.5663e-07
-3.04947e-07
-2.63329e-07
-2.29246e-07
-2.00651e-07
-1.76096e-07
-1.54734e-07
-1.36178e-07
-1.20253e-07
-1.06771e-07
-9.54e-08
-8.56627e-08
-7.70201e-08
-6.89916e-08
-6.12407e-08
-5.36067e-08
-4.60743e-08
-3.87151e-08
-3.16183e-08
-2.48483e-08
-1.84289e-08
-1.23039e-08
-7.32876e-09
4.09444e-05
4.09304e-05
4.0894e-05
4.08339e-05
4.07466e-05
4.06248e-05
4.04579e-05
4.02319e-05
3.99279e-05
3.95212e-05
3.89789e-05
3.82585e-05
3.73052e-05
3.60497e-05
3.44051e-05
3.2265e-05
2.95025e-05
2.59715e-05
2.15115e-05
1.5959e-05
9.16684e-06
1.0341e-06
-8.45222e-06
-1.91667e-05
-3.07931e-05
-4.27854e-05
-5.43644e-05
-6.45757e-05
-7.2426e-05
-7.7087e-05
-7.81159e-05
-7.56026e-05
-7.01612e-05
-6.27487e-05
-5.4393e-05
-4.59577e-05
-3.80333e-05
-3.09479e-05
-2.4836e-05
-1.9708e-05
-1.54998e-05
-1.21074e-05
-9.41091e-06
-7.29139e-06
-5.64036e-06
-4.36347e-06
-3.38118e-06
-2.62815e-06
-2.05202e-06
-1.61178e-06
-1.27565e-06
-1.01901e-06
-8.2256e-07
-6.71236e-07
-5.53534e-07
-4.61056e-07
-3.87895e-07
-3.29846e-07
-2.83659e-07
-2.46566e-07
-2.16151e-07
-1.90469e-07
-1.6819e-07
-1.48607e-07
-1.31472e-07
-1.16726e-07
-1.04253e-07
-9.37495e-08
-8.47334e-08
-7.66525e-08
-6.90212e-08
-6.15167e-08
-5.40105e-08
-4.65301e-08
-3.91901e-08
-3.21139e-08
-2.53859e-08
-1.90334e-08
-1.2976e-08
-7.9796e-09
4.09837e-05
4.09712e-05
4.09388e-05
4.0885e-05
4.08063e-05
4.06957e-05
4.05429e-05
4.03344e-05
4.00515e-05
3.96699e-05
3.91569e-05
3.84702e-05
3.7555e-05
3.63412e-05
3.47408e-05
3.26455e-05
2.99253e-05
2.64293e-05
2.19906e-05
1.64377e-05
9.61332e-06
1.40594e-06
-8.20759e-06
-1.91086e-05
-3.09808e-05
-4.32667e-05
-5.51617e-05
-6.56714e-05
-7.37534e-05
-7.85332e-05
-7.95407e-05
-7.687e-05
-7.11719e-05
-6.34588e-05
-5.48115e-05
-4.61287e-05
-3.80144e-05
-3.07956e-05
-2.45988e-05
-1.94244e-05
-1.51988e-05
-1.18094e-05
-9.12903e-06
-7.03332e-06
-5.40982e-06
-4.16143e-06
-3.20681e-06
-2.4795e-06
-1.92656e-06
-1.50678e-06
-1.18847e-06
-9.47136e-07
-7.63682e-07
-6.23219e-07
-5.14474e-07
-4.29325e-07
-3.62163e-07
-3.09055e-07
-2.66952e-07
-2.33214e-07
-2.05504e-07
-1.81948e-07
-1.61305e-07
-1.42979e-07
-1.26836e-07
-1.12914e-07
-1.01152e-07
-9.12661e-08
-8.27645e-08
-7.50781e-08
-6.77123e-08
-6.03533e-08
-5.28993e-08
-4.54152e-08
-3.80536e-08
-3.09688e-08
-2.42641e-08
-1.79767e-08
-1.20439e-08
-7.29174e-09
4.10077e-05
4.09962e-05
4.09664e-05
4.09168e-05
4.08438e-05
4.07407e-05
4.05974e-05
4.04004e-05
4.01317e-05
3.97668e-05
3.92735e-05
3.86095e-05
3.77198e-05
3.6534e-05
3.49635e-05
3.28985e-05
3.02068e-05
2.67344e-05
2.23102e-05
1.67568e-05
9.91017e-06
1.65126e-06
-8.0502e-06
-1.90805e-05
-3.11235e-05
-4.36141e-05
-5.57302e-05
-6.64493e-05
-7.46942e-05
-7.95575e-05
-8.05495e-05
-7.77672e-05
-7.18876e-05
-6.39628e-05
-5.51112e-05
-4.62558e-05
-3.80099e-05
-3.0699e-05
-2.44436e-05
-1.92374e-05
-1.49999e-05
-1.16124e-05
-8.94285e-06
-6.86314e-06
-5.25812e-06
-4.02887e-06
-3.09278e-06
-2.38265e-06
-1.84517e-06
-1.43902e-06
-1.13254e-06
-9.01385e-07
-7.26549e-07
-5.9327e-07
-4.90426e-07
-4.10086e-07
-3.46851e-07
-2.96977e-07
-2.57556e-07
-2.26027e-07
-2.00097e-07
-1.77931e-07
-1.58343e-07
-1.40817e-07
-1.25302e-07
-1.11903e-07
-1.00603e-07
-9.11244e-08
-8.29655e-08
-7.55376e-08
-6.83349e-08
-6.10473e-08
-5.3592e-08
-4.60633e-08
-3.86444e-08
-3.15148e-08
-2.47924e-08
-1.85164e-08
-1.26039e-08
-7.81055e-09
4.10156e-05
4.10047e-05
4.09761e-05
4.09284e-05
4.08581e-05
4.07584e-05
4.06196e-05
4.04281e-05
4.0166e-05
3.98091e-05
3.93251e-05
3.86718e-05
3.77943e-05
3.66219e-05
3.50655e-05
3.30148e-05
3.03364e-05
2.68748e-05
2.24566e-05
1.69015e-05
1.00421e-05
1.75539e-06
-7.99251e-06
-1.90905e-05
-3.12223e-05
-4.38194e-05
-5.60501e-05
-6.68777e-05
-7.52069e-05
-8.01132e-05
-8.10963e-05
-7.8255e-05
-7.22802e-05
-6.42446e-05
-5.52864e-05
-4.63411e-05
-3.80266e-05
-3.06675e-05
-2.43811e-05
-1.91575e-05
-1.49127e-05
-1.1525e-05
-8.85978e-06
-6.78711e-06
-5.19046e-06
-3.96995e-06
-3.04238e-06
-2.34013e-06
-1.80971e-06
-1.40976e-06
-1.10864e-06
-8.82068e-07
-7.11084e-07
-5.80975e-07
-4.80687e-07
-4.02382e-07
-3.40774e-07
-2.92222e-07
-2.53887e-07
-2.23241e-07
-1.98005e-07
-1.76352e-07
-1.57122e-07
-1.39836e-07
-1.24494e-07
-1.11239e-07
-1.00078e-07
-9.07358e-08
-8.26957e-08
-7.53515e-08
-6.81836e-08
-6.08794e-08
-5.33661e-08
-4.57559e-08
-3.82531e-08
-3.10552e-08
-2.42921e-08
-1.80091e-08
-1.21328e-08
-7.44858e-09
4.10072e-05
4.09962e-05
4.09673e-05
4.09193e-05
4.08485e-05
4.07483e-05
4.06087e-05
4.04164e-05
4.01533e-05
3.97952e-05
3.93099e-05
3.86551e-05
3.77758e-05
3.66015e-05
3.50429e-05
3.29898e-05
3.03088e-05
2.68442e-05
2.24228e-05
1.68643e-05
1.00013e-05
1.7109e-06
-8.04077e-06
-1.91424e-05
-3.12777e-05
-4.38777e-05
-5.61108e-05
-6.69398e-05
-7.52693e-05
-8.01747e-05
-8.1156e-05
-7.83121e-05
-7.23341e-05
-6.42954e-05
-5.53341e-05
-4.63858e-05
-3.80683e-05
-3.07061e-05
-2.44167e-05
-1.919e-05
-1.49423e-05
-1.15517e-05
-8.88392e-06
-6.8088e-06
-5.2099e-06
-3.98734e-06
-3.0579e-06
-2.35395e-06
-1.82199e-06
-1.42064e-06
-1.11829e-06
-8.90616e-07
-7.18663e-07
-5.87685e-07
-4.86609e-07
-4.0759e-07
-3.45346e-07
-2.96242e-07
-2.57437e-07
-2.26391e-07
-2.00805e-07
-1.78836e-07
-1.59312e-07
-1.41758e-07
-1.2618e-07
-1.12732e-07
-1.01423e-07
-9.1972e-08
-8.38493e-08
-7.64316e-08
-6.9185e-08
-6.17884e-08
-5.41679e-08
-4.64419e-08
-3.88241e-08
-3.15219e-08
-2.46724e-08
-1.83232e-08
-1.2394e-08
-7.6492e-09
4.09824e-05
4.09707e-05
4.09402e-05
4.08896e-05
4.08152e-05
4.07103e-05
4.05649e-05
4.03654e-05
4.00936e-05
3.97252e-05
3.92279e-05
3.85594e-05
3.76645e-05
3.6473e-05
3.4896e-05
3.28237e-05
3.01241e-05
2.6643e-05
2.22093e-05
1.66458e-05
9.78844e-06
1.51845e-06
-8.19422e-06
-1.92355e-05
-3.12886e-05
-4.37881e-05
-5.59109e-05
-6.66341e-05
-7.488e-05
-7.97409e-05
-8.07274e-05
-7.79373e-05
-7.20486e-05
-6.41144e-05
-5.52535e-05
-4.63892e-05
-3.81342e-05
-3.08142e-05
-2.45497e-05
-1.93344e-05
-1.50882e-05
-1.16924e-05
-9.01496e-06
-6.92796e-06
-5.31623e-06
-4.08083e-06
-3.13915e-06
-2.42391e-06
-1.88178e-06
-1.47143e-06
-1.16121e-06
-9.26731e-07
-7.48949e-07
-6.13024e-07
-5.07776e-07
-4.25251e-07
-3.60064e-07
-3.08486e-07
-2.67607e-07
-2.3483e-07
-2.07806e-07
-1.84648e-07
-1.64143e-07
-1.45778e-07
-1.29526e-07
-1.1552e-07
-1.03749e-07
-9.39212e-08
-8.54941e-08
-7.78305e-08
-7.03813e-08
-6.28111e-08
-5.50347e-08
-4.71629e-08
-3.94071e-08
-3.19757e-08
-2.50082e-08
-1.85547e-08
-1.25347e-08
-7.70923e-09
4.09417e-05
4.09288e-05
4.08953e-05
4.08398e-05
4.07588e-05
4.06453e-05
4.0489e-05
4.02762e-05
3.99884e-05
3.96009e-05
3.90813e-05
3.83871e-05
3.74633e-05
3.62399e-05
3.46289e-05
3.25217e-05
2.97883e-05
2.6278e-05
2.18238e-05
1.62542e-05
9.41226e-06
1.18672e-06
-8.44512e-06
-1.9364e-05
-3.12527e-05
-4.3553e-05
-5.5459e-05
-6.59753e-05
-7.40588e-05
-7.88347e-05
-7.98333e-05
-7.71499e-05
-7.1437e-05
-6.37086e-05
-5.50463e-05
-4.63487e-05
-3.82196e-05
-3.09858e-05
-2.47739e-05
-1.95847e-05
-1.53448e-05
-1.19416e-05
-9.24834e-06
-7.14061e-06
-5.50603e-06
-4.24752e-06
-3.28367e-06
-2.54793e-06
-1.98732e-06
-1.56062e-06
-1.23613e-06
-9.89322e-07
-8.0101e-07
-6.56189e-07
-5.43493e-07
-4.54762e-07
-3.84401e-07
-3.285e-07
-2.84006e-07
-2.4822e-07
-2.18719e-07
-1.93544e-07
-1.71409e-07
-1.51721e-07
-1.34384e-07
-1.19473e-07
-1.06945e-07
-9.64846e-08
-8.75397e-08
-7.94622e-08
-7.16888e-08
-6.38647e-08
-5.58833e-08
-4.78359e-08
-3.99194e-08
-3.23339e-08
-2.52167e-08
-1.86195e-08
-1.24691e-08
-7.56108e-09
4.0886e-05
4.08714e-05
4.08336e-05
4.07711e-05
4.06807e-05
4.05548e-05
4.03829e-05
4.0151e-05
3.98402e-05
3.94254e-05
3.88739e-05
3.8143e-05
3.7178e-05
3.59092e-05
3.42497e-05
3.20932e-05
2.93127e-05
2.57619e-05
2.12806e-05
1.57053e-05
8.88911e-06
7.31585e-07
-8.77967e-06
-1.95184e-05
-3.11672e-05
-4.31788e-05
-5.47726e-05
-6.49928e-05
-7.2845e-05
-7.75008e-05
-7.85178e-05
-7.59875e-05
-7.05261e-05
-6.30928e-05
-5.47166e-05
-4.62611e-05
-3.83164e-05
-3.12104e-05
-2.50779e-05
-1.99295e-05
-1.57016e-05
-1.22904e-05
-9.57613e-06
-7.44006e-06
-5.77376e-06
-4.48289e-06
-3.48782e-06
-2.72314e-06
-2.1364e-06
-1.68656e-06
-1.34185e-06
-1.07758e-06
-8.74365e-07
-7.16969e-07
-5.93766e-07
-4.96304e-07
-4.18685e-07
-3.56732e-07
-3.07187e-07
-2.67209e-07
-2.34269e-07
-2.06311e-07
-1.81942e-07
-1.60457e-07
-1.41653e-07
-1.25519e-07
-1.11956e-07
-1.00624e-07
-9.09594e-08
-8.23078e-08
-7.40922e-08
-6.5935e-08
-5.77001e-08
-4.94483e-08
-4.13509e-08
-3.35913e-08
-2.62983e-08
-1.95197e-08
-1.31724e-08
-8.01467e-09
4.08166e-05
4.07998e-05
4.07564e-05
4.06851e-05
4.05825e-05
4.04408e-05
4.02492e-05
3.99929e-05
3.96527e-05
3.92032e-05
3.86111e-05
3.78337e-05
3.68164e-05
3.54903e-05
3.37701e-05
3.15519e-05
2.87129e-05
2.5113e-05
2.05999e-05
1.50208e-05
8.24127e-06
1.7441e-07
-9.17967e-06
-1.96866e-05
-3.10296e-05
-4.26761e-05
-5.38775e-05
-6.37279e-05
-7.12932e-05
-7.58009e-05
-7.68417e-05
-7.45018e-05
-6.93533e-05
-6.22884e-05
-5.42715e-05
-4.61228e-05
-3.84143e-05
-3.14742e-05
-2.54463e-05
-2.03534e-05
-1.61441e-05
-1.27253e-05
-9.98646e-06
-7.81595e-06
-6.11046e-06
-4.77924e-06
-3.74504e-06
-2.9439e-06
-2.32417e-06
-1.84503e-06
-1.4747e-06
-1.18828e-06
-9.66137e-07
-7.92761e-07
-6.56202e-07
-5.47639e-07
-4.60797e-07
-3.91161e-07
-3.35211e-07
-2.8992e-07
-2.52626e-07
-2.21149e-07
-1.93962e-07
-1.70214e-07
-1.49561e-07
-1.31884e-07
-1.1701e-07
-1.04567e-07
-9.39795e-08
-8.45885e-08
-7.58046e-08
-6.72252e-08
-5.8678e-08
-5.01848e-08
-4.18825e-08
-3.393e-08
-2.64431e-08
-1.94677e-08
-1.29345e-08
-7.6673e-09
4.07349e-05
4.07155e-05
4.06655e-05
4.05837e-05
4.04667e-05
4.03063e-05
4.00911e-05
3.98059e-05
3.94309e-05
3.89401e-05
3.83e-05
3.74677e-05
3.63888e-05
3.49955e-05
3.32042e-05
3.09145e-05
2.80085e-05
2.43531e-05
1.9806e-05
1.42267e-05
7.49515e-06
-4.59946e-07
-9.62458e-06
-1.98558e-05
-3.08389e-05
-4.20593e-05
-5.28064e-05
-6.22315e-05
-6.94687e-05
-7.38083e-05
-7.4877e-05
-7.27547e-05
-6.79639e-05
-6.13223e-05
-5.37216e-05
-4.59319e-05
-3.8503e-05
-3.17618e-05
-2.58617e-05
-2.08388e-05
-1.66553e-05
-1.32309e-05
-1.04657e-05
-8.25656e-06
-6.50625e-06
-5.12837e-06
-4.04863e-06
-3.20486e-06
-2.5464e-06
-2.03281e-06
-1.63229e-06
-1.31975e-06
-1.07527e-06
-8.8303e-07
-7.30694e-07
-6.0902e-07
-5.11296e-07
-4.3261e-07
-3.69131e-07
-3.1761e-07
-2.7522e-07
-2.39632e-07
-2.09161e-07
-1.82781e-07
-1.59988e-07
-1.40526e-07
-1.2414e-07
-1.10412e-07
-9.8755e-08
-8.85055e-08
-7.90621e-08
-6.99951e-08
-6.10925e-08
-5.23308e-08
-4.3806e-08
-3.56466e-08
-2.795e-08
-2.07513e-08
-1.39631e-08
-8.35006e-09
4.0643e-05
4.06207e-05
4.05631e-05
4.04694e-05
4.0336e-05
4.01544e-05
3.99125e-05
3.95946e-05
3.91802e-05
3.86429e-05
3.79488e-05
3.70548e-05
3.59071e-05
3.44388e-05
3.25688e-05
3.02003e-05
2.72214e-05
2.35072e-05
1.89261e-05
1.33515e-05
6.67925e-06
-1.14526e-06
-1.00935e-05
-2.00142e-05
-3.05965e-05
-4.13466e-05
-5.15963e-05
-6.05593e-05
-6.74423e-05
-7.16016e-05
-7.2701e-05
-7.0813e-05
-6.64081e-05
-6.02258e-05
-5.30807e-05
-4.56885e-05
-3.85731e-05
-3.2058e-05
-2.63058e-05
-2.13662e-05
-1.72163e-05
-1.37895e-05
-1.09979e-05
-8.74768e-06
-6.94871e-06
-5.51958e-06
-4.38938e-06
-3.49811e-06
-2.7963e-06
-2.24404e-06
-1.80954e-06
-1.46756e-06
-1.19786e-06
-9.84266e-07
-8.14048e-07
-6.77493e-07
-5.67408e-07
-4.78443e-07
-4.06417e-07
-3.47824e-07
-2.99642e-07
-2.59373e-07
-2.25151e-07
-1.95762e-07
-1.70519e-07
-1.49016e-07
-1.309e-07
-1.157e-07
-1.02814e-07
-9.15693e-08
-8.13536e-08
-7.17087e-08
-6.23808e-08
-5.32983e-08
-4.45124e-08
-3.61173e-08
-2.81893e-08
-2.0756e-08
-1.37424e-08
-7.98331e-09
4.05429e-05
4.05174e-05
4.04517e-05
4.03449e-05
4.01936e-05
3.99888e-05
3.97178e-05
3.93642e-05
3.89071e-05
3.83193e-05
3.75667e-05
3.6606e-05
3.53841e-05
3.38355e-05
3.18817e-05
2.94302e-05
2.63753e-05
2.26013e-05
1.79884e-05
1.24244e-05
5.82226e-06
-1.85586e-06
-1.05669e-05
-2.01522e-05
-3.03063e-05
-4.0559e-05
-5.02873e-05
-5.87693e-05
-6.52861e-05
-6.92598e-05
-7.0391e-05
-6.87443e-05
-6.47379e-05
-5.90331e-05
-5.2366e-05
-4.53955e-05
-3.86172e-05
-3.2349e-05
-2.6761e-05
-2.19167e-05
-1.78082e-05
-1.43833e-05
-1.15668e-05
-9.27497e-06
-7.42544e-06
-5.9423e-06
-4.75847e-06
-3.81639e-06
-3.06801e-06
-2.47403e-06
-2.00283e-06
-1.62896e-06
-1.33191e-06
-1.09515e-06
-9.05492e-07
-7.52752e-07
-6.29228e-07
-5.29105e-07
-4.47815e-07
-3.81567e-07
-3.27122e-07
-2.8179e-07
-2.43514e-07
-2.10878e-07
-1.83001e-07
-1.59318e-07
-1.39364e-07
-1.22608e-07
-1.08423e-07
-9.61262e-08
-8.50908e-08
-7.48308e-08
-6.505e-08
-5.56285e-08
-4.6571e-08
-3.79348e-08
-2.97716e-08
-2.20928e-08
-1.48018e-08
-8.67404e-09
4.04371e-05
4.04081e-05
4.03337e-05
4.02132e-05
4.00429e-05
3.98135e-05
3.95118e-05
3.91206e-05
3.86183e-05
3.79775e-05
3.71633e-05
3.6133e-05
3.48338e-05
3.32019e-05
3.11618e-05
2.86255e-05
2.54943e-05
2.16619e-05
1.70209e-05
1.14742e-05
4.95143e-06
-2.56815e-06
-1.10278e-05
-2.0263e-05
-2.99751e-05
-3.97196e-05
-4.89198e-05
-5.69182e-05
-6.30691e-05
-6.68583e-05
-6.80211e-05
-6.66139e-05
-6.30049e-05
-5.77793e-05
-5.15967e-05
-4.50589e-05
-3.8631e-05
-3.26231e-05
-2.72116e-05
-2.24724e-05
-1.84124e-05
-1.49943e-05
-1.21556e-05
-9.82322e-06
-7.92291e-06
-6.3847e-06
-5.14563e-06
-4.15086e-06
-3.35392e-06
-2.71629e-06
-2.20654e-06
-1.79913e-06
-1.47325e-06
-1.212e-06
-1.00177e-06
-8.31861e-07
-6.94074e-07
-5.82104e-07
-4.9098e-07
-4.16601e-07
-3.55488e-07
-3.04751e-07
-2.62131e-07
-2.26008e-07
-1.95301e-07
-1.6928e-07