/*--------------------------------*- C++ -*----------------------------------*\
| =========                 |                                                 |
| \\      /  F ield         | OpenFOAM: The Open Source CFD Toolbox           |
|  \\    /   O peration     | Version:  2512                                  |
|   \\  /    A nd           | Website:  www.openfoam.com                      |
|    \\/     M anipulation  |                                                 |
\*---------------------------------------------------------------------------*/
FoamFile
{
    version     2.0;
    format      ascii;
    arch        "LSB;label=32;scalar=64";
    class       volScalarField;
    location    "166";
    object      p;
}
// * * * * * * * * * * * * * * * * * * * * * * * * * * * * * * * * * * * * * //

dimensions      [0 2 -2 0 0 0 0];

internalField   nonuniform List<scalar> 
335663
(
0.000498844
0.000498202
0.00049657
0.000493953
0.000490313
0.000485507
0.000479335
0.00047156
0.000461901
0.000450024
0.000435541
0.000418014
0.00039696
0.00037186
0.000342183
0.000307409
0.000267076
0.000220829
0.000168489
0.000110132
4.61743e-05
-2.25533e-05
-9.474e-05
-0.000168573
-0.00024177
-0.000311681
-0.000375473
-0.000430383
-0.000474015
-0.000504629
-0.000521366
-0.000524353
-0.00051466
-0.000494119
-0.000465054
-0.000429969
-0.000391286
-0.000351144
-0.000311291
-0.000273047
-0.000237328
-0.000204695
-0.000175419
-0.000149552
-0.000126985
-0.000107508
-9.0848e-05
-7.67044e-05
-6.47713e-05
-5.47538e-05
-4.63774e-05
-3.93936e-05
-3.3582e-05
-2.87504e-05
-2.47332e-05
-2.13896e-05
-1.86008e-05
-1.62671e-05
-1.43058e-05
-1.26485e-05
-1.12389e-05
-1.00307e-05
-8.98615e-06
-8.0745e-06
-7.27067e-06
-6.55429e-06
-5.90887e-06
-5.32108e-06
-4.78016e-06
-4.27738e-06
-3.80567e-06
-3.35927e-06
-2.93345e-06
-2.52431e-06
-2.12858e-06
-1.7435e-06
-1.36668e-06
-9.96111e-07
-6.28572e-07
-2.79815e-07
0.000499033
0.000498397
0.00049678
0.000494188
0.000490581
0.000485817
0.000479698
0.000471988
0.000462404
0.000450614
0.000436229
0.000418811
0.000397872
0.000372891
0.000343328
0.000308656
0.000268399
0.000222187
0.000169826
0.000111372
4.72242e-05
-2.17986e-05
-9.43902e-05
-0.00016873
-0.00024251
-0.000313041
-0.000377434
-0.000432862
-0.000476867
-0.000507663
-0.00052437
-0.000527125
-0.000517038
-0.000495998
-0.000466393
-0.000430785
-0.000391636
-0.000351111
-0.000310963
-0.000272514
-0.000236666
-0.000203968
-0.000174677
-0.000148829
-0.000126306
-0.000106887
-9.02917e-05
-7.62147e-05
-6.43463e-05
-5.43892e-05
-4.60677e-05
-3.91326e-05
-3.33637e-05
-2.85688e-05
-2.45829e-05
-2.12658e-05
-1.8499e-05
-1.61838e-05
-1.42377e-05
-1.2593e-05
-1.11936e-05
-9.99379e-06
-8.95609e-06
-8.04997e-06
-7.2506e-06
-6.53782e-06
-5.8953e-06
-5.30984e-06
-4.77079e-06
-4.26952e-06
-3.79903e-06
-3.35363e-06
-2.92862e-06
-2.52016e-06
-2.12502e-06
-1.74047e-06
-1.36415e-06
-9.94075e-07
-6.27155e-07
-2.78835e-07
0.000499406
0.000498782
0.000497196
0.000494652
0.00049111
0.000486431
0.000480416
0.000472832
0.000463397
0.000451779
0.000437589
0.000420386
0.000399676
0.00037493
0.000345596
0.000311127
0.000271023
0.000224886
0.000172486
0.000113843
4.93222e-05
-2.02834e-05
-9.36767e-05
-0.000169022
-0.000243964
-0.000315731
-0.000381323
-0.000437786
-0.000482538
-0.0005137
-0.000530348
-0.00053264
-0.000521764
-0.000499728
-0.000469047
-0.000432396
-0.000392322
-0.000351034
-0.000310306
-0.000271449
-0.000235349
-0.000202524
-0.000173203
-0.000147395
-0.00012496
-0.000105656
-8.91897e-05
-7.52448e-05
-6.35046e-05
-5.36672e-05
-4.54544e-05
-3.8616e-05
-3.29315e-05
-2.82094e-05
-2.42856e-05
-2.10209e-05
-1.8298e-05
-1.60193e-05
-1.41035e-05
-1.24837e-05
-1.11047e-05
-9.92163e-06
-8.89755e-06
-8.0025e-06
-7.21211e-06
-6.5066e-06
-5.86995e-06
-5.28924e-06
-4.75403e-06
-4.25588e-06
-3.78794e-06
-3.34462e-06
-2.92136e-06
-2.51436e-06
-2.1205e-06
-1.73711e-06
-1.36186e-06
-9.92843e-07
-6.26955e-07
-2.79441e-07
0.000499956
0.000499349
0.000497808
0.000495334
0.000491889
0.000487334
0.000481473
0.000474076
0.000464861
0.000453498
0.000439596
0.00042271
0.000402341
0.000377945
0.000348951
0.000314786
0.000274915
0.000228895
0.000176444
0.00011753
5.24635e-05
-1.80005e-05
-9.25808e-05
-0.000169419
-0.000246093
-0.000319708
-0.000387098
-0.000445114
-0.000490988
-0.000522697
-0.000539254
-0.000540847
-0.000528784
-0.000505252
-0.000472959
-0.000434752
-0.000393301
-0.000350886
-0.000309301
-0.000269848
-0.000233378
-0.000200372
-0.000171012
-0.000145269
-0.000122966
-0.000103835
-8.75615e-05
-7.38131e-05
-6.2263e-05
-5.26029e-05
-4.45508e-05
-3.78551e-05
-3.22951e-05
-2.76803e-05
-2.38478e-05
-2.06602e-05
-1.80019e-05
-1.57768e-05
-1.39054e-05
-1.2322e-05
-1.09729e-05
-9.81419e-06
-8.80992e-06
-7.93094e-06
-7.15353e-06
-6.45847e-06
-5.83023e-06
-5.25628e-06
-4.7265e-06
-4.23272e-06
-3.76831e-06
-3.32786e-06
-2.90696e-06
-2.50195e-06
-2.1098e-06
-1.72794e-06
-1.35415e-06
-9.86556e-07
-6.22193e-07
-2.7645e-07
0.000500668
0.000500084
0.000498601
0.000496219
0.000492899
0.000488505
0.000482845
0.00047569
0.000466762
0.000455731
0.000442206
0.000425736
0.000405813
0.000381878
0.000353334
0.000319574
0.000280017
0.000234161
0.000181658
0.000122402
5.6635e-05
-1.49436e-05
-9.10751e-05
-0.000169876
-0.000248835
-0.000324899
-0.000394677
-0.000454763
-0.000502133
-0.000534571
-0.000551
-0.000551654
-0.000538003
-0.000512476
-0.000478044
-0.000437781
-0.00039452
-0.00035063
-0.000307931
-0.000267707
-0.000230768
-0.000197534
-0.000168133
-0.000142482
-0.000120358
-0.000101458
-8.54389e-05
-7.19489e-05
-6.0648e-05
-5.12196e-05
-4.33772e-05
-3.68675e-05
-3.14697e-05
-2.69945e-05
-2.32809e-05
-2.01935e-05
-1.76191e-05
-1.54638e-05
-1.36501e-05
-1.21143e-05
-1.08042e-05
-9.67734e-06
-8.69904e-06
-7.84116e-06
-7.08085e-06
-6.39963e-06
-5.78257e-06
-5.21765e-06
-4.69519e-06
-4.20735e-06
-3.74778e-06
-3.31132e-06
-2.89374e-06
-2.49154e-06
-2.10184e-06
-1.72219e-06
-1.35046e-06
-9.84851e-07
-6.22358e-07
-2.77957e-07
0.000501526
0.00050097
0.000499557
0.000497286
0.000494118
0.000489919
0.000484501
0.00047764
0.00046906
0.000458432
0.000445364
0.000429401
0.000410024
0.000386654
0.000358666
0.00032541
0.000286249
0.000240613
0.000188067
0.000128417
6.18157e-05
-1.11075e-05
-8.91273e-05
-0.000170334
-0.000252109
-0.000331205
-0.000403953
-0.00046662
-0.000515859
-0.000549205
-0.00056547
-0.00056494
-0.000549298
-0.000521281
-0.000484192
-0.000441391
-0.00039591
-0.000350222
-0.000306177
-0.000265031
-0.000227535
-0.000194042
-0.000164606
-0.000139078
-0.000117181
-9.85678e-05
-8.2862e-05
-6.96887e-05
-5.86921e-05
-4.95458e-05
-4.19582e-05
-3.56739e-05
-3.04725e-05
-2.6166e-05
-2.25958e-05
-1.96292e-05
-1.71558e-05
-1.50845e-05
-1.33401e-05
-1.18612e-05
-1.05977e-05
-9.5089e-06
-8.5615e-06
-7.72864e-06
-6.98854e-06
-6.32358e-06
-5.7196e-06
-5.16519e-06
-4.65117e-06
-4.17013e-06
-3.71607e-06
-3.28409e-06
-2.87021e-06
-2.47112e-06
-2.08412e-06
-1.7069e-06
-1.33747e-06
-9.74122e-07
-6.14038e-07
-2.72497e-07
0.00050251
0.000501986
0.000500653
0.00049851
0.000495516
0.000491541
0.000486403
0.00047988
0.000471702
0.00046154
0.000449003
0.00043363
0.000414889
0.00039218
0.000364847
0.000332191
0.000293511
0.000248153
0.000195588
0.00013551
6.79681e-05
-6.49758e-06
-8.67069e-05
-0.000170725
-0.000255815
-0.0003385
-0.000414782
-0.00048053
-0.000532006
-0.000566436
-0.000582494
-0.000580535
-0.0005625
-0.000531507
-0.000491263
-0.00044547
-0.000397389
-0.000349615
-0.000304021
-0.000261826
-0.00022371
-0.000189938
-0.000160481
-0.000135112
-0.000113491
-9.52194e-05
-7.98829e-05
-6.70804e-05
-5.64384e-05
-4.76197e-05
-4.03273e-05
-3.43037e-05
-2.93289e-05
-2.5217e-05
-2.18122e-05
-1.89849e-05
-1.6628e-05
-1.46533e-05
-1.29889e-05
-1.15758e-05
-1.03663e-05
-9.32149e-06
-8.40998e-06
-7.60628e-06
-6.8898e-06
-6.24395e-06
-5.6554e-06
-5.11346e-06
-4.60954e-06
-4.1367e-06
-3.68933e-06
-3.26286e-06
-2.85354e-06
-2.45833e-06
-2.0747e-06
-1.70053e-06
-1.33392e-06
-9.73286e-07
-6.15682e-07
-2.75713e-07
0.000503598
0.000503109
0.000501865
0.000499863
0.000497062
0.000493336
0.000488507
0.00048236
0.000474629
0.000464987
0.000453043
0.00043833
0.000420305
0.000398345
0.000371757
0.000339791
0.000301675
0.000256662
0.000204111
0.000143595
7.50352e-05
-1.13272e-06
-8.37886e-05
-0.000170979
-0.000259839
-0.000346633
-0.000426983
-0.000496294
-0.000550361
-0.000586045
-0.000601852
-0.000598218
-0.000577397
-0.000542962
-0.000499093
-0.000449888
-0.000398873
-0.000348764
-0.000301455
-0.000258114
-0.000219334
-0.000185281
-0.000155825
-0.000130656
-0.000109358
-9.14788e-05
-7.65622e-05
-6.41782e-05
-5.39342e-05
-4.54819e-05
-3.85185e-05
-3.27848e-05
-2.80615e-05
-2.4165e-05
-2.0943e-05
-1.82693e-05
-1.60406e-05
-1.41723e-05
-1.25955e-05
-1.12545e-05
-1.01038e-05
-9.10701e-06
-8.23447e-06
-7.4623e-06
-6.77126e-06
-6.14588e-06
-5.57378e-06
-5.04506e-06
-4.55176e-06
-4.08751e-06
-3.64709e-06
-3.22629e-06
-2.82167e-06
-2.43043e-06
-2.05026e-06
-1.67922e-06
-1.31559e-06
-9.57887e-07
-6.03449e-07
-2.67411e-07
0.000504762
0.000504311
0.000503163
0.000501312
0.000498719
0.00049526
0.000490765
0.000485023
0.000477774
0.000468695
0.000457393
0.000443399
0.000426155
0.000405017
0.000379254
0.000348061
0.000310587
0.000265987
0.000213498
0.000152553
8.29323e-05
4.94618e-06
-8.03611e-05
-0.000171027
-0.000264052
-0.000355422
-0.000440331
-0.000513654
-0.000570648
-0.000607747
-0.000623256
-0.000617711
-0.000593729
-0.000555413
-0.000507491
-0.000454508
-0.000400272
-0.00034763
-0.000298482
-0.000253932
-0.000214469
-0.000180145
-0.000150722
-0.000125793
-0.000104866
-8.7425e-05
-7.29727e-05
-6.1048e-05
-5.12385e-05
-4.31847e-05
-3.65782e-05
-3.11581e-05
-2.67065e-05
-2.30426e-05
-2.00176e-05
-1.75096e-05
-1.54192e-05
-1.36656e-05
-1.21836e-05
-1.09203e-05
-9.83347e-06
-8.88874e-06
-8.05861e-06
-7.32087e-06
-6.65771e-06
-6.05486e-06
-5.50094e-06
-4.98691e-06
-4.50551e-06
-4.0509e-06
-3.61835e-06
-3.204e-06
-2.80473e-06
-2.418e-06
-2.04176e-06
-1.67426e-06
-1.31392e-06
-9.59334e-07
-6.07667e-07
-2.73067e-07
0.000505977
0.000505565
0.000504516
0.000502824
0.000500447
0.000497268
0.000493123
0.000487806
0.000481064
0.000472577
0.000461954
0.000448721
0.00043231
0.000412051
0.000387178
0.000356826
0.000320067
0.000275948
0.000223577
0.000162234
9.15423e-05
1.16701e-05
-7.64326e-05
-0.000170806
-0.00026832
-0.000364661
-0.000454557
-0.000532295
-0.00059252
-0.000631177
-0.000646344
-0.000638665
-0.00061118
-0.000568593
-0.000516249
-0.000459183
-0.000401506
-0.000346188
-0.000295124
-0.000249334
-0.000209193
-0.000174624
-0.000145271
-0.000120624
-0.000100107
-8.31444e-05
-6.91917e-05
-5.77571e-05
-4.84088e-05
-4.07759e-05
-3.45448e-05
-2.94538e-05
-2.52864e-05
-2.18653e-05
-1.90455e-05
-1.67096e-05
-1.47625e-05
-1.31276e-05
-1.17432e-05
-1.05601e-05
-9.53867e-06
-8.64723e-06
-7.86034e-06
-7.15758e-06
-6.52263e-06
-5.94246e-06
-5.40679e-06
-4.90742e-06
-4.43784e-06
-3.99278e-06
-3.568e-06
-3.16001e-06
-2.76602e-06
-2.38379e-06
-2.01149e-06
-1.64759e-06
-1.29069e-06
-9.39534e-07
-5.91619e-07
-2.61889e-07
0.000507212
0.000506841
0.000505894
0.000504363
0.000502207
0.000499313
0.000495525
0.000490644
0.00048442
0.000476542
0.000466619
0.000454173
0.000438625
0.000419285
0.000395347
0.000365892
0.000329908
0.000286334
0.00023414
0.000172449
0.00010071
1.89349e-05
-7.20394e-05
-0.000170271
-0.000272505
-0.000374121
-0.000469349
-0.000551834
-0.000615547
-0.000655885
-0.000670668
-0.000660662
-0.000629379
-0.000582197
-0.00052514
-0.000463769
-0.000402505
-0.000344432
-0.000291424
-0.000244403
-0.00020361
-0.000168833
-0.00013959
-0.000115263
-9.51934e-05
-7.87395e-05
-6.53124e-05
-5.43895e-05
-4.552e-05
-3.83223e-05
-3.24783e-05
-2.77258e-05
-2.38504e-05
-2.06782e-05
-1.80689e-05
-1.59095e-05
-1.41094e-05
-1.25963e-05
-1.13123e-05
-1.02117e-05
-9.25772e-06
-8.42135e-06
-7.67928e-06
-7.01286e-06
-6.4073e-06
-5.85086e-06
-5.33431e-06
-4.85037e-06
-4.39325e-06
-3.95829e-06
-3.54169e-06
-3.14039e-06
-2.75191e-06
-2.3743e-06
-2.00602e-06
-1.64572e-06
-1.29216e-06
-9.44148e-07
-5.98923e-07
-2.70171e-07
0.00050844
0.000508108
0.000507262
0.000505892
0.000503956
0.000501347
0.000497914
0.000493467
0.000487763
0.000480495
0.000471275
0.000459623
0.00044495
0.000426546
0.000403569
0.000375044
0.000339878
0.000296902
0.000244948
0.00018297
0.000110241
2.65964e-05
-6.7252e-05
-0.000169398
-0.000276475
-0.000383553
-0.000484348
-0.000571822
-0.000639216
-0.000681328
-0.000695691
-0.000683205
-0.0006479
-0.000595891
-0.00053393
-0.000468128
-0.000403218
-0.000342382
-0.000287454
-0.000239242
-0.000197844
-0.000162904
-0.000133811
-0.000109836
-9.02378e-05
-7.43106e-05
-6.14211e-05
-5.10175e-05
-4.2631e-05
-3.58703e-05
-3.04135e-05
-2.59983e-05
-2.2413e-05
-1.94877e-05
-1.70864e-05
-1.5101e-05
-1.34455e-05
-1.20518e-05
-1.08661e-05
-9.84584e-06
-8.95755e-06
-8.17462e-06
-7.47589e-06
-6.84453e-06
-6.26722e-06
-5.73353e-06
-5.23528e-06
-4.76609e-06
-4.3209e-06
-3.89562e-06
-3.48693e-06
-3.09212e-06
-2.70907e-06
-2.33613e-06
-1.97197e-06
-1.6155e-06
-1.26562e-06
-9.21301e-07
-5.80176e-07
-2.56913e-07
0.00050963
0.000509337
0.000508589
0.000507375
0.000505652
0.000503319
0.000500232
0.000496208
0.000491011
0.000484338
0.000475807
0.000464936
0.000451127
0.000433652
0.000411636
0.00038405
0.000349726
0.000307387
0.000255726
0.000193533
0.000119895
3.44679e-05
-6.21802e-05
-0.000168195
-0.00028011
-0.000392701
-0.000499159
-0.000591744
-0.000662927
-0.000706866
-0.000720784
-0.000705724
-0.000666269
-0.000609317
-0.000542383
-0.00047214
-0.00040362
-0.000340087
-0.000283314
-0.000233984
-0.000192045
-0.000156993
-0.000128086
-0.000104488
-8.53747e-05
-6.99799e-05
-5.76283e-05
-4.77406e-05
-3.98314e-05
-3.35008e-05
-2.84241e-05
-2.43395e-05
-2.10381e-05
-1.8354e-05
-1.61561e-05
-1.43408e-05
-1.28267e-05
-1.15499e-05
-1.04604e-05
-9.51916e-06
-8.69543e-06
-7.96512e-06
-7.30914e-06
-6.71239e-06
-6.16302e-06
-5.65181e-06
-5.17164e-06
-4.717e-06
-4.28352e-06
-3.86767e-06
-3.46656e-06
-3.07788e-06
-2.69983e-06
-2.33103e-06
-1.97044e-06
-1.61715e-06
-1.27022e-06
-9.28666e-07
-5.89794e-07
-2.66893e-07
0.000510755
0.000510499
0.000509843
0.000508776
0.000507254
0.000505182
0.000502422
0.000498799
0.000494082
0.000487977
0.000480102
0.000469977
0.000456998
0.00044042
0.000419337
0.000392673
0.000359186
0.000317501
0.000266176
0.000203842
0.000129399
4.2321e-05
-5.69747e-05
-0.0001667
-0.000283312
-0.000401305
-0.000513361
-0.000611031
-0.000686003
-0.000731773
-0.000745239
-0.000727584
-0.00068397
-0.000622102
-0.00055027
-0.000475703
-0.000403714
-0.000337623
-0.000279132
-0.000228785
-0.000186378
-0.000151262
-0.000122567
-9.93564e-05
-8.07242e-05
-6.58496e-05
-5.4018e-05
-4.46252e-05
-3.71713e-05
-3.12494e-05
-2.65322e-05
-2.27593e-05
-1.97247e-05
-1.72669e-05
-1.52591e-05
-1.36024e-05
-1.22198e-05
-1.10515e-05
-1.00511e-05
-9.18268e-06
-8.41844e-06
-7.73654e-06
-7.11984e-06
-6.55486e-06
-6.03112e-06
-5.54057e-06
-5.07709e-06
-4.63596e-06
-4.21348e-06
-3.80661e-06
-3.41288e-06
-3.03032e-06
-2.65742e-06
-2.29309e-06
-1.93651e-06
-1.58698e-06
-1.24371e-06
-9.0584e-07
-5.71059e-07
-2.53637e-07
0.000511788
0.000511565
0.000510994
0.000510061
0.000508724
0.000506891
0.000504431
0.000501176
0.000496901
0.000491317
0.000484049
0.000474614
0.000462406
0.000446665
0.000426459
0.000400669
0.000367988
0.000326947
0.000275984
0.000213575
0.000138447
4.98918e-05
-5.18246e-05
-0.000164992
-0.000286009
-0.000409117
-0.000526517
-0.000629076
-0.000707712
-0.000755256
-0.000768277
-0.000748099
-0.000700462
-0.000633872
-0.000557381
-0.000478747
-0.000403535
-0.000335103
-0.000275063
-0.000223823
-0.00018103
-0.000145896
-0.000117431
-9.46025e-05
-7.64339e-05
-6.20529e-05
-5.07103e-05
-4.17803e-05
-3.47504e-05
-2.92076e-05
-2.48233e-05
-2.13386e-05
-1.85505e-05
-1.63015e-05
-1.44692e-05
-1.2959e-05
-1.16979e-05
-1.06298e-05
-9.71184e-06
-8.91095e-06
-8.20182e-06
-7.56477e-06
-6.98441e-06
-6.44875e-06
-5.94858e-06
-5.47692e-06
-5.02856e-06
-4.59952e-06
-4.1867e-06
-3.78752e-06
-3.39989e-06
-3.02216e-06
-2.6531e-06
-2.29188e-06
-1.93793e-06
-1.59071e-06
-1.24958e-06
-9.13694e-07
-5.80446e-07
-2.62916e-07
0.000512705
0.000512512
0.000512015
0.0005112
0.000510026
0.000508404
0.000506209
0.000503279
0.000499395
0.000494274
0.000487544
0.000478725
0.000467206
0.000452215
0.000432801
0.000407806
0.000375866
0.000335432
0.000284831
0.000222404
0.000146716
5.68925e-05
-4.69487e-05
-0.000163179
-0.000288159
-0.00041591
-0.000538198
-0.000645259
-0.000727286
-0.000776479
-0.000789086
-0.000766563
-0.000715199
-0.000644266
-0.000563529
-0.000481228
-0.000403145
-0.000332653
-0.000271273
-0.000219279
-0.000176181
-0.000141063
-0.000112827
-9.03571e-05
-7.26125e-05
-5.86773e-05
-4.77727e-05
-3.92545e-05
-3.25999e-05
-2.73915e-05
-2.32998e-05
-2.00675e-05
-1.74948e-05
-1.54277e-05
-1.3748e-05
-1.23648e-05
-1.12088e-05
-1.02274e-05
-9.38053e-06
-8.63784e-06
-7.97625e-06
-7.37791e-06
-6.82899e-06
-6.31881e-06
-5.83925e-06
-5.38428e-06
-4.94949e-06
-4.53154e-06
-4.12782e-06
-3.73616e-06
-3.35477e-06
-2.98226e-06
-2.61766e-06
-2.26035e-06
-1.90995e-06
-1.56611e-06
-1.22828e-06
-8.95713e-07
-5.66055e-07
-2.53053e-07
0.000513485
0.000513316
0.000512882
0.000512167
0.000511129
0.000509684
0.000507712
0.000505055
0.000501501
0.00049677
0.000490495
0.000482197
0.000471262
0.000456912
0.000438175
0.000413864
0.00038257
0.000342673
0.000292412
0.000230007
0.000153887
6.30283e-05
-4.2582e-05
-0.000161396
-0.00028975
-0.000421486
-0.000548001
-0.00065898
-0.000743972
-0.000794612
-0.000806856
-0.000782277
-0.000727659
-0.000652954
-0.00056856
-0.000483133
-0.000402629
-0.000330422
-0.000267944
-0.00021535
-0.000172026
-0.000136949
-0.000108928
-8.67767e-05
-6.94021e-05
-5.58514e-05
-4.53222e-05
-3.71553e-05
-3.082e-05
-2.58953e-05
-2.20516e-05
-1.90329e-05
-1.66424e-05
-1.47293e-05
-1.31786e-05
-1.19028e-05
-1.08358e-05
-9.92766e-06
-9.14084e-06
-8.44725e-06
-7.82563e-06
-7.25972e-06
-6.73696e-06
-6.24776e-06
-5.78493e-06
-5.34326e-06
-4.91899e-06
-4.50937e-06
-4.11218e-06
-3.7256e-06
-3.3481e-06
-2.97853e-06
-2.61611e-06
-2.26046e-06
-1.91138e-06
-1.56865e-06
-1.23182e-06
-9.00173e-07
-5.71202e-07
-2.58084e-07
0.000514109
0.000513959
0.000513574
0.000512937
0.000512006
0.0005107
0.000508903
0.00050646
0.000503165
0.00049874
0.000492822
0.000484935
0.000474461
0.000460617
0.000442418
0.000418655
0.00038788
0.000348424
0.000298451
0.00023609
0.00015966
6.80196e-05
-3.89555e-05
-0.000159785
-0.000290794
-0.00042569
-0.000555575
-0.000669694
-0.000757073
-0.000808883
-0.000820837
-0.000794602
-0.000737367
-0.000659648
-0.000572353
-0.000484469
-0.000402079
-0.000328552
-0.00026524
-0.0002122
-0.000168721
-0.000133693
-0.000105853
-8.39595e-05
-6.68794e-05
-5.36323e-05
-4.33973e-05
-3.55045e-05
-2.94172e-05
-2.47122e-05
-2.106e-05
-1.82059e-05
-1.59555e-05
-1.41605e-05
-1.27087e-05
-1.15151e-05
-1.05162e-05
-9.66405e-06
-8.92329e-06
-8.26746e-06
-7.67677e-06
-7.13613e-06
-6.63398e-06
-6.16156e-06
-5.71241e-06
-5.28192e-06
-4.86686e-06
-4.46487e-06
-4.07406e-06
-3.69284e-06
-3.31986e-06
-2.95413e-06
-2.59505e-06
-2.24237e-06
-1.89603e-06
-1.55592e-06
-1.22166e-06
-8.92546e-07
-5.66106e-07
-2.55499e-07
0.000514563
0.000514427
0.000514076
0.000513493
0.000512637
0.000511428
0.000509752
0.000507459
0.000504343
0.000500132
0.000494464
0.000486862
0.000476711
0.000463222
0.000445401
0.000422023
0.000391618
0.000352479
0.000302721
0.00024041
0.000163787
7.1626e-05
-3.62728e-05
-0.000158481
-0.00029132
-0.000428405
-0.000560636
-0.000676951
-0.000766006
-0.000818638
-0.000830391
-0.000802997
-0.000743937
-0.000664124
-0.000574827
-0.000485259
-0.000401591
-0.000327177
-0.000263314
-0.000209988
-0.00016642
-0.000131439
-0.000103735
-8.20272e-05
-6.51562e-05
-5.21226e-05
-4.20936e-05
-3.4392e-05
-2.84775e-05
-2.39254e-05
-2.04061e-05
-1.76663e-05
-1.55131e-05
-1.38e-05
-1.24166e-05
-1.12799e-05
-1.03279e-05
-9.51428e-06
-8.80497e-06
-8.17473e-06
-7.60474e-06
-7.08073e-06
-6.59185e-06
-6.1299e-06
-5.68892e-06
-5.26475e-06
-4.85453e-06
-4.45619e-06
-4.06807e-06
-3.68875e-06
-3.31701e-06
-2.95199e-06
-2.59321e-06
-2.24055e-06
-1.89404e-06
-1.55367e-06
-1.21911e-06
-8.89724e-07
-5.63135e-07
-2.52949e-07
0.000514838
0.00051471
0.000514377
0.000513823
0.000513007
0.00051185
0.00051024
0.000508027
0.000505008
0.000500911
0.000495376
0.000487928
0.000477949
0.000464649
0.000447031
0.000423862
0.000393657
0.000354694
0.00030506
0.000242788
0.000166081
7.36696e-05
-3.46885e-05
-0.000157592
-0.000291359
-0.00042956
-0.000562993
-0.000680434
-0.000770349
-0.000823407
-0.000835059
-0.000807076
-0.000747091
-0.000666224
-0.000575927
-0.000485526
-0.000401232
-0.00032639
-0.000262265
-0.000208809
-0.000165208
-0.00013026
-0.000102631
-8.10228e-05
-6.42609e-05
-5.13375e-05
-4.14141e-05
-3.381e-05
-2.79831e-05
-2.35083e-05
-2.00562e-05
-1.73741e-05
-1.52697e-05
-1.35979e-05
-1.2249e-05
-1.11412e-05
-1.0213e-05
-9.41922e-06
-8.72629e-06
-8.10963e-06
-7.5509e-06
-7.03624e-06
-6.55513e-06
-6.09964e-06
-5.66407e-06
-5.24447e-06
-4.83817e-06
-4.44323e-06
-4.05809e-06
-3.68138e-06
-3.31197e-06
-2.94903e-06
-2.59213e-06
-2.24119e-06
-1.89631e-06
-1.5575e-06
-1.22445e-06
-8.96449e-07
-5.70863e-07
-2.60353e-07
0.000514929
0.000514801
0.000514471
0.000513921
0.000513109
0.000511958
0.000510356
0.000508151
0.000505143
0.000501058
0.000495536
0.000488103
0.000478141
0.000464859
0.000447261
0.000424113
0.000393931
0.00035499
0.00030538
0.000243132
0.000166446
7.40544e-05
-3.42864e-05
-0.000157175
-0.000290931
-0.000429122
-0.000562546
-0.000679978
-0.000769888
-0.000822943
-0.000834603
-0.00080664
-0.000746691
-0.000665873
-0.000575633
-0.00048529
-0.000401048
-0.000326249
-0.00026216
-0.000208731
-0.000165152
-0.00013022
-0.000102605
-8.10057e-05
-6.42511e-05
-5.13335e-05
-4.14145e-05
-3.38139e-05
-2.79897e-05
-2.35171e-05
-2.00666e-05
-1.73857e-05
-1.52823e-05
-1.36111e-05
-1.22627e-05
-1.11549e-05
-1.02267e-05
-9.43269e-06
-8.73938e-06
-8.12218e-06
-7.56279e-06
-7.04733e-06
-6.56528e-06
-6.10872e-06
-5.67196e-06
-5.25109e-06
-4.84344e-06
-4.44709e-06
-4.0605e-06
-3.6823e-06
-3.31136e-06
-2.94685e-06
-2.58837e-06
-2.23583e-06
-1.88935e-06
-1.54895e-06
-1.21432e-06
-8.84859e-07
-5.5833e-07
-2.48999e-07
0.000514834
0.000514701
0.000514357
0.000513785
0.000512943
0.000511752
0.000510098
0.000507831
0.000504747
0.000500571
0.000494943
0.000487386
0.000477285
0.00046385
0.000446089
0.000422775
0.000392437
0.000353367
0.000303679
0.000241436
0.000164878
7.2776e-05
-3.50714e-05
-0.000157237
-0.000290041
-0.000427096
-0.000559301
-0.000675592
-0.000764629
-0.000817257
-0.000829032
-0.000801699
-0.000742745
-0.000663078
-0.000573949
-0.00048455
-0.000401034
-0.000326748
-0.000262987
-0.000209742
-0.000166236
-0.000131302
-0.000103633
-8.1952e-05
-6.51003e-05
-5.20811e-05
-4.20628e-05
-3.43692e-05
-2.84607e-05
-2.39131e-05
-2.03973e-05
-1.76603e-05
-1.55092e-05
-1.37978e-05
-1.24159e-05
-1.12804e-05
-1.03295e-05
-9.51689e-06
-8.8086e-06
-8.17939e-06
-7.61044e-06
-7.08744e-06
-6.5995e-06
-6.13841e-06
-5.69824e-06
-5.27484e-06
-4.86537e-06
-4.46778e-06
-4.08041e-06
-3.70179e-06
-3.33072e-06
-2.96629e-06
-2.60804e-06
-2.25583e-06
-1.90971e-06
-1.56965e-06
-1.23531e-06
-9.05929e-07
-5.78734e-07
-2.66162e-07
0.000514559
0.000514414
0.00051404
0.000513421
0.000512513
0.000511237
0.000509477
0.000507078
0.000503833
0.000499467
0.000493616
0.000485802
0.000475411
0.000461658
0.000443557
0.000419898
0.000389234
0.000349892
0.000300034
0.000237786
0.000161464
6.99202e-05
-3.69698e-05
-0.000157728
-0.000288679
-0.000423527
-0.00055337
-0.000667453
-0.000754805
-0.00080661
-0.000818604
-0.000792471
-0.000735411
-0.00065793
-0.000570908
-0.000483297
-0.000401157
-0.000327839
-0.000264698
-0.000211793
-0.000168419
-0.000133471
-0.000105693
-8.3845e-05
-6.67996e-05
-5.35787e-05
-4.33638e-05
-3.54862e-05
-2.94107e-05
-2.47149e-05
-2.10697e-05
-1.82211e-05
-1.59749e-05
-1.41831e-05
-1.27336e-05
-1.15418e-05
-1.0544e-05
-9.69266e-06
-8.95231e-06
-8.29664e-06
-7.70582e-06
-7.16475e-06
-6.66185e-06
-6.18834e-06
-5.73781e-06
-5.30571e-06
-4.88888e-06
-4.48499e-06
-4.09218e-06
-3.70883e-06
-3.3336e-06
-2.96548e-06
-2.60389e-06
-2.2486e-06
-1.89957e-06
-1.5567e-06
-1.21962e-06
-8.87683e-07
-5.5878e-07
-2.47871e-07
0.000514111
0.000513948
0.00051353
0.000512839
0.000511834
0.000510431
0.000508511
0.000505914
0.00050243
0.000497781
0.000491597
0.000483402
0.000472581
0.000458355
0.000439754
0.000415588
0.000384445
0.000344706
0.000294603
0.000232353
0.00015638
6.56558e-05
-3.98372e-05
-0.000158553
-0.000286826
-0.000418497
-0.000544957
-0.00065589
-0.000740852
-0.000791493
-0.000803797
-0.000779362
-0.00072498
-0.000650595
-0.000566568
-0.00048151
-0.000401342
-0.000329421
-0.000267176
-0.000214767
-0.000171589
-0.000136623
-0.000108686
-8.65986e-05
-6.92718e-05
-5.57572e-05
-4.52552e-05
-3.71089e-05
-3.07892e-05
-2.58765e-05
-2.20419e-05
-1.90304e-05
-1.66455e-05
-1.47367e-05
-1.31894e-05
-1.19163e-05
-1.08515e-05
-9.94516e-06
-9.15995e-06
-8.46782e-06
-7.84751e-06
-7.2827e-06
-6.7608e-06
-6.27218e-06
-5.8097e-06
-5.36821e-06
-4.94402e-06
-4.5344e-06
-4.13714e-06
-3.75039e-06
-3.3726e-06
-3.00258e-06
-2.63956e-06
-2.28317e-06
-1.93321e-06
-1.58947e-06
-1.25148e-06
-9.18431e-07
-5.87469e-07
-2.71215e-07
0.000513503
0.000513318
0.000512841
0.000512058
0.000510925
0.000509356
0.000507226
0.000504372
0.000500578
0.00049556
0.000488946
0.000480257
0.000468881
0.000454049
0.000434805
0.000409992
0.000378244
0.000338006
0.000287605
0.000225372
0.000149869
6.02148e-05
-4.34785e-05
-0.000159585
-0.000284464
-0.000412133
-0.000534355
-0.000641366
-0.000723364
-0.00077257
-0.000785261
-0.000762922
-0.000711854
-0.000641312
-0.000561022
-0.000479173
-0.000401504
-0.000331368
-0.000270281
-0.000218524
-0.000175612
-0.000140638
-0.000112513
-9.01271e-05
-7.24468e-05
-5.85606e-05
-4.76936e-05
-3.92042e-05
-3.25718e-05
-2.73806e-05
-2.33024e-05
-2.00804e-05
-1.75159e-05
-1.54551e-05
-1.37802e-05
-1.24007e-05
-1.12475e-05
-1.02681e-05
-9.42263e-06
-8.68097e-06
-8.01996e-06
-7.42175e-06
-6.87246e-06
-6.36139e-06
-5.88049e-06
-5.42381e-06
-4.98703e-06
-4.56689e-06
-4.16079e-06
-3.76654e-06
-3.38236e-06
-3.00682e-06
-2.63896e-06
-2.27821e-06
-1.92422e-06
-1.57663e-06
-1.23493e-06
-8.98417e-07
-5.65004e-07
-2.50237e-07
0.000512753
0.00051254
0.000511993
0.000511097
0.000509811
0.000508041
0.00050566
0.000502496
0.000498329
0.000492869
0.000485739
0.000476461
0.000464425
0.000448872
0.00042887
0.000403297
0.000370844
0.000330037
0.00027931
0.000217132
0.000142224
5.38697e-05
-4.76706e-05
-0.00016069
-0.000281588
-0.000404601
-0.000521927
-0.000624435
-0.000703048
-0.000750622
-0.000763755
-0.000743801
-0.00069651
-0.000630371
-0.000554394
-0.000476281
-0.00040155
-0.000333535
-0.000273842
-0.000222883
-0.000180314
-0.000145355
-0.000117025
-9.43003e-05
-7.62109e-05
-6.18903e-05
-5.0594e-05
-4.16993e-05
-3.46966e-05
-2.91747e-05
-2.48066e-05
-2.13343e-05
-1.8556e-05
-1.63145e-05
-1.4488e-05
-1.29824e-05
-1.17249e-05
-1.06597e-05
-9.74399e-06
-8.94505e-06
-8.23751e-06
-7.60166e-06
-7.02208e-06
-6.48675e-06
-5.98651e-06
-5.51446e-06
-5.06549e-06
-4.6357e-06
-4.22196e-06
-3.82171e-06
-3.43283e-06
-3.05361e-06
-2.68284e-06
-2.3197e-06
-1.96364e-06
-1.61415e-06
-1.27057e-06
-9.32011e-07
-5.95649e-07
-2.74667e-07
0.000511881
0.000511636
0.000511008
0.000509984
0.000508521
0.000506523
0.000503854
0.000500338
0.000495746
0.000489782
0.000482069
0.000472123
0.000459343
0.000442982
0.000422133
0.000395718
0.000362492
0.000321075
0.00027002
0.00020795
0.000133758
4.69092e-05
-5.21851e-05
-0.000161741
-0.000278217
-0.000396105
-0.000508083
-0.000605704
-0.000680667
-0.000726487
-0.000740095
-0.0007227
-0.000679476
-0.000618109
-0.000546844
-0.000472852
-0.0004014
-0.00033578
-0.000277685
-0.000227662
-0.000185516
-0.000150607
-0.000122073
-9.89873e-05
-8.04517e-05
-6.56516e-05
-5.38776e-05
-4.45295e-05
-3.71103e-05
-3.12153e-05
-2.65191e-05
-2.27625e-05
-1.97409e-05
-1.7293e-05
-1.5293e-05
-1.36424e-05
-1.22645e-05
-1.10998e-05
-1.01021e-05
-9.23579e-06
-8.473e-06
-7.79192e-06
-7.17537e-06
-6.60988e-06
-6.08501e-06
-5.59282e-06
-5.1273e-06
-4.68383e-06
-4.25872e-06
-3.84895e-06
-3.45205e-06
-3.066e-06
-2.68931e-06
-2.32092e-06
-1.96004e-06
-1.60601e-06
-1.25808e-06
-9.15448e-07
-5.75981e-07
-2.55631e-07
0.000510909
0.000510629
0.000509913
0.000508748
0.000507091
0.000504842
0.000501857
0.000497954
0.000492897
0.000486385
0.000478035
0.000467366
0.00045378
0.000436548
0.000414793
0.000387485
0.000353451
0.00031141
0.000260049
0.00019815
0.00012479
3.96168e-05
-5.68076e-05
-0.000162634
-0.0002744
-0.000386877
-0.000493257
-0.0005858
-0.000656989
-0.000701002
-0.000715093
-0.000700327
-0.000661299
-0.000604886
-0.000538558
-0.000468933
-0.000400994
-0.000337975
-0.000281642
-0.000232675
-0.00019103
-0.000156213
-0.000127491
-0.000104039
-8.50382e-05
-6.9731e-05
-5.74472e-05
-4.7612e-05
-3.97434e-05
-3.34445e-05
-2.83922e-05
-2.43266e-05
-2.104e-05
-1.83675e-05
-1.61785e-05
-1.43702e-05
-1.28615e-05
-1.15889e-05
-1.05027e-05
-9.56404e-06
-8.74232e-06
-8.01344e-06
-7.35827e-06
-6.76171e-06
-6.21195e-06
-5.69988e-06
-5.21849e-06
-4.76235e-06
-4.32715e-06
-3.90936e-06
-3.50608e-06
-3.11495e-06
-2.73417e-06
-2.36239e-06
-1.99858e-06
-1.64187e-06
-1.29137e-06
-9.46101e-07
-6.03283e-07
-2.76911e-07
0.000509865
0.000509547
0.000508736
0.000507421
0.000505558
0.000503041
0.000499722
0.000495408
0.00048986
0.000482769
0.000473748
0.000462318
0.00044789
0.000429753
0.000407062
0.00037884
0.00034399
0.000301339
0.000249709
0.00018805
0.000115622
3.22539e-05
-6.13521e-05
-0.000163295
-0.000270211
-0.000377171
-0.000477888
-0.000565331
-0.000632749
-0.00067496
-0.000689525
-0.000677365
-0.000642517
-0.000591075
-0.000529749
-0.000464596
-0.0004003
-0.000340016
-0.000285562
-0.000237748
-0.000196676
-0.000162
-0.000133117
-0.000109309
-8.98403e-05
-7.40152e-05
-6.12055e-05
-5.08643e-05
-4.25264e-05
-3.58038e-05
-3.03768e-05
-2.59849e-05
-2.24179e-05
-1.9507e-05
-1.7117e-05
-1.51404e-05
-1.34918e-05
-1.21034e-05
-1.09219e-05
-9.90487e-06
-9.01896e-06
-8.2376e-06
-7.53961e-06
-6.90819e-06
-6.33005e-06
-5.79486e-06
-5.29458e-06
-4.82293e-06