/*--------------------------------*- C++ -*----------------------------------*\
| =========                 |                                                 |
| \\      /  F ield         | OpenFOAM: The Open Source CFD Toolbox           |
|  \\    /   O peration     | Version:  2512                                  |
|   \\  /    A nd           | Website:  www.openfoam.com                      |
|    \\/     M anipulation  |                                                 |
\*---------------------------------------------------------------------------*/
FoamFile
{
    version     2.0;
    format      ascii;
    arch        "LSB;label=32;scalar=64";
    class       volScalarField;
    location    "100";
    object      p;
}
// * * * * * * * * * * * * * * * * * * * * * * * * * * * * * * * * * * * * * //

dimensions      [0 2 -2 0 0 0 0];

internalField   nonuniform List<scalar> 
248793
(
5.04892e-05
5.04263e-05
5.02649e-05
5.0007e-05
4.96504e-05
4.91828e-05
4.85854e-05
4.78347e-05
4.69018e-05
4.57517e-05
4.43438e-05
4.26319e-05
4.0565e-05
3.80882e-05
3.51445e-05
3.16782e-05
2.7639e-05
2.29869e-05
1.76984e-05
1.17745e-05
5.24845e-06
-1.80497e-06
-9.26287e-06
-1.69502e-05
-2.4641e-05
-3.20674e-05
-3.89357e-05
-4.49512e-05
-4.98477e-05
-5.34199e-05
-5.55497e-05
-5.62214e-05
-5.55213e-05
-5.36232e-05
-5.07608e-05
-4.71965e-05
-4.31906e-05
-3.89781e-05
-3.4755e-05
-3.06718e-05
-2.68351e-05
-2.33121e-05
-2.01373e-05
-1.73199e-05
-1.48511e-05
-1.27098e-05
-1.08677e-05
-9.29302e-06
-7.95327e-06
-6.81699e-06
-5.85497e-06
-5.04097e-06
-4.35204e-06
-3.76858e-06
-3.27409e-06
-2.85495e-06
-2.49988e-06
-2.19958e-06
-1.94631e-06
-1.73358e-06
-1.55584e-06
-1.40827e-06
-1.2865e-06
-1.18646e-06
-1.10414e-06
-1.03561e-06
-9.7696e-07
-9.24387e-07
-8.74356e-07
-8.23761e-07
-7.70065e-07
-7.11433e-07
-6.46756e-07
-5.75636e-07
-4.98286e-07
-4.15469e-07
-3.28396e-07
-2.38793e-07
-1.48648e-07
-6.51927e-08
5.05068e-05
5.04444e-05
5.02847e-05
5.00292e-05
4.96758e-05
4.92123e-05
4.86201e-05
4.78757e-05
4.69502e-05
4.58087e-05
4.44107e-05
4.27097e-05
4.06546e-05
3.819e-05
3.52584e-05
3.18031e-05
2.77726e-05
2.31252e-05
1.78358e-05
1.19033e-05
5.35927e-06
-1.72296e-06
-9.22114e-06
-1.69597e-05
-2.47106e-05
-3.2202e-05
-3.91347e-05
-4.52075e-05
-5.01478e-05
-5.37448e-05
-5.58773e-05
-5.65298e-05
-5.57919e-05
-5.3843e-05
-5.09237e-05
-4.73025e-05
-4.32447e-05
-3.89886e-05
-3.47311e-05
-3.06232e-05
-2.67704e-05
-2.32385e-05
-2.00605e-05
-1.72442e-05
-1.47793e-05
-1.26438e-05
-1.08085e-05
-9.24096e-06
-7.90826e-06
-6.77864e-06
-5.82274e-06
-5.01423e-06
-4.33012e-06
-3.75083e-06
-3.25992e-06
-2.84382e-06
-2.4913e-06
-2.1931e-06
-1.94152e-06
-1.7301e-06
-1.55331e-06
-1.40638e-06
-1.28498e-06
-1.18508e-06
-1.10275e-06
-1.0341e-06
-9.75259e-07
-9.22479e-07
-8.72264e-07
-8.21542e-07
-7.67807e-07
-7.09243e-07
-6.44752e-07
-5.73938e-07
-4.97005e-07
-4.14687e-07
-3.28149e-07
-2.39024e-07
-1.49174e-07
-6.5401e-08
5.05414e-05
5.04802e-05
5.03234e-05
5.00726e-05
4.97257e-05
4.92704e-05
4.86884e-05
4.79565e-05
4.70458e-05
4.59215e-05
4.4543e-05
4.28638e-05
4.0832e-05
3.83916e-05
3.5484e-05
3.20505e-05
2.80373e-05
2.33995e-05
1.81086e-05
1.21595e-05
5.58032e-06
-1.5586e-06
-9.13638e-06
-1.69765e-05
-2.48468e-05
-3.24677e-05
-3.95293e-05
-4.57169e-05
-5.07449e-05
-5.43916e-05
-5.65297e-05
-5.71438e-05
-5.63304e-05
-5.42801e-05
-5.1247e-05
-4.75125e-05
-4.33516e-05
-3.90086e-05
-3.46834e-05
-3.05265e-05
-2.66419e-05
-2.30925e-05
-1.99082e-05
-1.7094e-05
-1.46371e-05
-1.2513e-05
-1.06911e-05
-9.13758e-06
-7.81873e-06
-6.70223e-06
-5.75836e-06
-4.96062e-06
-4.28598e-06
-3.71491e-06
-3.23107e-06
-2.821e-06
-2.47358e-06
-2.17963e-06
-1.93151e-06
-1.7228e-06
-1.54805e-06
-1.40254e-06
-1.28204e-06
-1.18261e-06
-1.10042e-06
-1.03166e-06
-9.72563e-07
-9.19457e-07
-8.68918e-07
-8.1794e-07
-7.64074e-07
-7.05545e-07
-6.41282e-07
-5.70895e-07
-4.94573e-07
-4.13014e-07
-3.27308e-07
-2.38962e-07
-1.49625e-07
-6.56974e-08
5.05921e-05
5.05326e-05
5.03802e-05
5.01364e-05
4.97989e-05
4.93559e-05
4.87891e-05
4.80756e-05
4.71867e-05
4.60879e-05
4.47383e-05
4.30912e-05
4.1094e-05
3.86896e-05
3.58175e-05
3.24166e-05
2.84293e-05
2.38064e-05
1.85139e-05
1.25411e-05
5.91071e-06
-1.31154e-06
-9.007e-06
-1.69979e-05
-2.50461e-05
-3.28607e-05
-4.01152e-05
-4.64753e-05
-5.16352e-05
-5.53565e-05
-5.75028e-05
-5.80588e-05
-5.71314e-05
-5.49285e-05
-5.17249e-05
-4.7821e-05
-4.35065e-05
-3.90349e-05
-3.46095e-05
-3.03808e-05
-2.64496e-05
-2.28749e-05
-1.9682e-05
-1.68714e-05
-1.44264e-05
-1.23195e-05
-1.05174e-05
-8.98468e-06
-7.68632e-06
-6.58919e-06
-5.66307e-06
-4.88122e-06
-4.22056e-06
-3.66163e-06
-3.18826e-06
-2.78715e-06
-2.44734e-06
-2.15977e-06
-1.91685e-06
-1.71226e-06
-1.54063e-06
-1.39734e-06
-1.27828e-06
-1.17965e-06
-1.09776e-06
-1.02894e-06
-9.69523e-07
-9.15962e-07
-8.64937e-07
-8.13538e-07
-7.59399e-07
-7.00815e-07
-6.36753e-07
-5.6684e-07
-4.91252e-07
-4.10641e-07
-3.26008e-07
-2.38701e-07
-1.50105e-07
-6.61901e-08
5.06577e-05
5.06004e-05
5.04537e-05
5.02189e-05
4.98938e-05
4.94666e-05
4.89196e-05
4.82301e-05
4.73697e-05
4.63041e-05
4.49922e-05
4.3387e-05
4.14352e-05
3.9078e-05
3.62526e-05
3.28948e-05
2.89422e-05
2.43397e-05
1.90464e-05
1.30442e-05
6.34816e-06
-9.82041e-07
-8.8311e-06
-1.70199e-05
-2.53027e-05
-3.33738e-05
-4.08848e-05
-4.74747e-05
-5.28105e-05
-5.66313e-05
-5.8788e-05
-5.92658e-05
-5.81855e-05
-5.57789e-05
-5.23485e-05
-4.82203e-05
-4.37035e-05
-3.90633e-05
-3.45075e-05
-3.01857e-05
-2.61949e-05
-2.25882e-05
-1.9385e-05
-1.65799e-05
-1.41511e-05
-1.2067e-05
-1.0291e-05
-8.78563e-06
-7.51408e-06
-6.44223e-06
-5.53925e-06
-4.7781e-06
-4.13564e-06
-3.59251e-06
-3.13277e-06
-2.74334e-06
-2.41346e-06
-2.13419e-06
-1.89807e-06
-1.69886e-06
-1.53128e-06
-1.39088e-06
-1.27371e-06
-1.17614e-06
-1.09464e-06
-1.02573e-06
-9.65885e-07
-9.117e-07
-8.59987e-07
-8.07963e-07
-7.53371e-07
-6.94594e-07
-6.30656e-07
-5.61208e-07
-4.86412e-07
-4.06869e-07
-3.23477e-07
-2.37411e-07
-1.49782e-07
-6.6189e-08
5.07365e-05
5.0682e-05
5.05422e-05
5.03182e-05
5.0008e-05
4.96e-05
4.90769e-05
4.84165e-05
4.75906e-05
4.65652e-05
4.52992e-05
4.3745e-05
4.18484e-05
3.9549e-05
3.67812e-05
3.34767e-05
2.95675e-05
2.49916e-05
1.96994e-05
1.36635e-05
6.88961e-06
-5.70588e-07
-8.60632e-06
-1.70373e-05
-2.56091e-05
-3.39976e-05
-4.18272e-05
-4.87037e-05
-5.42594e-05
-5.82046e-05
-6.03736e-05
-6.07527e-05
-5.94803e-05
-5.68189e-05
-5.31061e-05
-4.87004e-05
-4.3935e-05
-3.90888e-05
-3.43748e-05
-2.99412e-05
-2.58795e-05
-2.22357e-05
-1.90215e-05
-1.62243e-05
-1.38161e-05
-1.17603e-05
-1.00167e-05
-8.54468e-06
-7.30584e-06
-6.26477e-06
-5.38989e-06
-4.65382e-06
-4.03336e-06
-3.50934e-06
-3.06605e-06
-2.69072e-06
-2.37281e-06
-2.10356e-06
-1.87563e-06
-1.68288e-06
-1.52019e-06
-1.38327e-06
-1.26838e-06
-1.1721e-06
-1.09114e-06
-1.02218e-06
-9.61888e-07
-9.0702e-07
-8.54539e-07
-8.01808e-07
-7.46696e-07
-6.87692e-07
-6.23886e-07
-5.54955e-07
-4.81044e-07
-4.02696e-07
-3.20697e-07
-2.36042e-07
-1.49552e-07
-6.64268e-08
5.08266e-05
5.07752e-05
5.06433e-05
5.04319e-05
5.01387e-05
4.97528e-05
4.92572e-05
4.86302e-05
4.78442e-05
4.68652e-05
4.56523e-05
4.41573e-05
4.23251e-05
4.00932e-05
3.7393e-05
3.41514e-05
3.02945e-05
2.57516e-05
2.04636e-05
1.43916e-05
7.53009e-06
-7.89818e-08
-8.33088e-06
-1.70448e-05
-2.59562e-05
-3.472e-05
-4.29285e-05
-5.01471e-05
-5.59659e-05
-6.00598e-05
-6.22429e-05
-6.25023e-05
-6.09987e-05
-5.80321e-05
-5.39832e-05
-4.92493e-05
-4.41919e-05
-3.91059e-05
-3.42093e-05
-2.96479e-05
-2.55064e-05
-2.1822e-05
-1.85971e-05
-1.58108e-05
-1.34278e-05
-1.14058e-05
-9.70011e-06
-8.2672e-06
-7.06642e-06
-6.06102e-06
-5.21861e-06
-4.51142e-06
-3.91625e-06
-3.41411e-06
-2.98965e-06
-2.63042e-06
-2.32617e-06
-2.06833e-06
-1.84968e-06
-1.66425e-06
-1.50706e-06
-1.37405e-06
-1.26171e-06
-1.16691e-06
-1.08656e-06
-1.01758e-06
-9.56838e-07
-9.01252e-07
-8.47959e-07
-7.94474e-07
-7.3881e-07
-6.79562e-07
-6.15895e-07
-5.47512e-07
-4.74537e-07
-3.97447e-07
-3.16913e-07
-2.3375e-07
-1.48518e-07
-6.60853e-08
5.09258e-05
5.08778e-05
5.07546e-05
5.0557e-05
5.02827e-05
4.99212e-05
4.94562e-05
4.88663e-05
4.81246e-05
4.71972e-05
4.60434e-05
4.46147e-05
4.28547e-05
4.06989e-05
3.80754e-05
3.4906e-05
3.11097e-05
2.66069e-05
2.13269e-05
1.52183e-05
8.26239e-06
4.89289e-07
-8.00387e-06
-1.70365e-05
-2.63337e-05
-3.55267e-05
-4.4171e-05
-5.1785e-05
-5.79088e-05
-6.2175e-05
-6.43734e-05
-6.44923e-05
-6.2719e-05
-5.93983e-05
-5.49621e-05
-4.98529e-05
-4.44646e-05
-3.91092e-05
-3.40096e-05
-2.93078e-05
-2.508e-05
-2.13531e-05
-1.8119e-05
-1.53471e-05
-1.2994e-05
-1.10108e-05
-9.34827e-06
-7.95942e-06
-6.80134e-06
-5.83579e-06
-5.02953e-06
-4.35441e-06
-3.78721e-06
-3.30923e-06
-2.90553e-06
-2.56407e-06
-2.27487e-06
-2.0296e-06
-1.82118e-06
-1.64379e-06
-1.49266e-06
-1.36397e-06
-1.25451e-06
-1.16141e-06
-1.08187e-06
-1.01303e-06
-9.51955e-07
-8.95758e-07
-8.41739e-07
-7.87577e-07
-7.31425e-07
-6.71996e-07
-6.08525e-07
-5.40739e-07
-4.68738e-07
-3.92928e-07
-3.13863e-07
-2.32184e-07
-1.48188e-07
-6.63691e-08
5.10314e-05
5.09871e-05
5.08732e-05
5.06905e-05
5.04365e-05
5.01012e-05
4.9669e-05
4.91191e-05
4.8425e-05
4.75534e-05
4.64636e-05
4.51068e-05
4.34255e-05
4.1353e-05
3.8814e-05
3.57249e-05
3.19971e-05
2.75412e-05
2.22742e-05
1.61305e-05
9.07637e-06
1.1283e-06
-7.626e-06
-1.70074e-05
-2.67304e-05
-3.6401e-05
-4.55331e-05
-5.3592e-05
-6.00603e-05
-6.45212e-05
-6.6736e-05
-6.6694e-05
-6.46139e-05
-6.0893e-05
-5.60223e-05
-5.04958e-05
-4.4743e-05
-3.90939e-05
-3.37753e-05
-2.89241e-05
-2.46063e-05
-2.08369e-05
-1.7596e-05
-1.48423e-05
-1.25234e-05
-1.05838e-05
-8.96888e-06
-7.62829e-06
-6.51668e-06
-5.59432e-06
-4.82706e-06
-4.18639e-06
-3.64913e-06
-3.19696e-06
-2.81538e-06
-2.49281e-06
-2.21962e-06
-1.98768e-06
-1.7901e-06
-1.62119e-06
-1.47644e-06
-1.35229e-06
-1.24585e-06
-1.15459e-06
-1.07596e-06
-1.00736e-06
-9.46041e-07
-8.89303e-07
-8.34615e-07
-7.79817e-07
-7.23209e-07
-6.63619e-07
-6.00352e-07
-5.33157e-07
-4.62108e-07
-3.87536e-07
-3.09881e-07
-2.29624e-07
-1.46851e-07
-6.58168e-08
5.11409e-05
5.11004e-05
5.09963e-05
5.08289e-05
5.05962e-05
5.02883e-05
4.98903e-05
4.93822e-05
4.87381e-05
4.79251e-05
4.69028e-05
4.5622e-05
4.40241e-05
4.20406e-05
3.95922e-05
3.65901e-05
3.29379e-05
2.85357e-05
2.32872e-05
1.71116e-05
9.95856e-06
1.82915e-06
-7.20024e-06
-1.69534e-05
-2.71348e-05
-3.73234e-05
-4.69888e-05
-5.55368e-05
-6.23853e-05
-6.70612e-05
-6.92928e-05
-6.90709e-05
-6.665e-05
-6.24872e-05
-5.71406e-05
-5.11613e-05
-4.5017e-05
-3.9056e-05
-3.35078e-05
-2.85021e-05
-2.40934e-05
-2.02833e-05
-1.70387e-05
-1.43071e-05
-1.20267e-05
-1.01345e-05
-8.5709e-06
-7.28179e-06
-6.21951e-06
-5.34277e-06
-4.61653e-06
-4.01196e-06
-3.506e-06
-3.08072e-06
-2.72219e-06
-2.41931e-06
-2.16282e-06
-1.94479e-06
-1.75849e-06
-1.59842e-06
-1.46031e-06
-1.34091e-06
-1.23771e-06
-1.14846e-06
-1.07094e-06
-1.00275e-06
-9.41367e-07
-8.84237e-07
-8.28999e-07
-7.73654e-07
-7.16646e-07
-6.56922e-07
-5.93859e-07
-5.27228e-07
-4.57075e-07
-3.83656e-07
-3.07301e-07
-2.28339e-07
-1.4665e-07
-6.61943e-08
5.12514e-05
5.12148e-05
5.11206e-05
5.09689e-05
5.07577e-05
5.04777e-05
5.01146e-05
4.96492e-05
4.90562e-05
4.83033e-05
4.73503e-05
4.61477e-05
4.46363e-05
4.27451e-05
4.03917e-05
3.74818e-05
3.39108e-05
2.95681e-05
2.4344e-05
1.81411e-05
1.08916e-05
2.57929e-06
-6.73252e-06
-1.68722e-05
-2.75351e-05
-3.82729e-05
-4.85078e-05
-5.75814e-05
-6.48404e-05
-6.97485e-05
-7.19974e-05
-7.15786e-05
-6.87871e-05
-6.41475e-05
-5.82913e-05
-5.18322e-05
-4.52777e-05
-3.89936e-05
-3.32106e-05
-2.80496e-05
-2.35518e-05
-1.9704e-05
-1.64597e-05
-1.3754e-05
-1.15154e-05
-9.67369e-06
-8.16382e-06
-6.92824e-06
-5.91691e-06
-5.08706e-06
-4.40279e-06
-3.83497e-06
-3.36073e-06
-2.96265e-06
-2.6274e-06
-2.3444e-06
-2.10474e-06
-1.9007e-06
-1.7257e-06
-1.57444e-06
-1.44291e-06
-1.32822e-06
-1.22822e-06
-1.14101e-06
-1.06466e-06
-9.96978e-07
-9.35608e-07
-8.78162e-07
-8.22429e-07
-7.66563e-07
-7.09156e-07
-6.49274e-07
-5.86372e-07
-5.20246e-07
-4.50913e-07
-3.78562e-07
-3.03416e-07
-2.2567e-07
-1.45057e-07
-6.54132e-08
5.13601e-05
5.13274e-05
5.12429e-05
5.11068e-05
5.0917e-05
5.06646e-05
5.03363e-05
4.99134e-05
4.93713e-05
4.86784e-05
4.77948e-05
4.66709e-05
4.52466e-05
4.34493e-05
4.11929e-05
3.83778e-05
3.48918e-05
3.06135e-05
2.54192e-05
1.9195e-05
1.18541e-05
3.36215e-06
-6.23234e-06
-1.6764e-05
-2.79206e-05
-3.92267e-05
-5.00556e-05
-5.96812e-05
-6.73732e-05
-7.25269e-05
-7.47929e-05
-7.41638e-05
-7.09788e-05
-6.5836e-05
-5.94473e-05
-5.24917e-05
-4.55176e-05
-3.89073e-05
-3.28904e-05
-2.75773e-05
-2.29944e-05
-1.91135e-05
-1.58733e-05
-1.31968e-05
-1.10027e-05
-9.21322e-06
-7.75836e-06
-6.57713e-06
-5.61726e-06
-4.83452e-06
-4.19224e-06
-3.66104e-06
-3.21831e-06
-2.84721e-06
-2.53506e-06
-2.27181e-06
-2.04888e-06
-1.85874e-06
-1.69493e-06
-1.55236e-06
-1.4273e-06
-1.31726e-06
-1.22046e-06
-1.13536e-06
-1.06029e-06
-9.93265e-07
-9.32063e-07
-8.74429e-07
-8.18285e-07
-7.61936e-07
-7.0412e-07
-6.44029e-07
-5.81201e-07
-5.15467e-07
-4.46824e-07
-3.75395e-07
-3.01305e-07
-2.24623e-07
-1.44923e-07
-6.58261e-08
5.14641e-05
5.14352e-05
5.13601e-05
5.12391e-05
5.10699e-05
5.08443e-05
5.05496e-05
5.01679e-05
4.96753e-05
4.90408e-05
4.82249e-05
4.71781e-05
4.58395e-05
4.41348e-05
4.19748e-05
3.9255e-05
3.58555e-05
3.16445e-05
2.64847e-05
2.02452e-05
1.28205e-05
4.15691e-06
-5.71315e-06
-1.66323e-05
-2.82821e-05
-4.01613e-05
-5.15943e-05
-6.1785e-05
-6.99228e-05
-7.53298e-05
-7.76125e-05
-7.67644e-05
-7.3172e-05
-6.75117e-05
-6.05801e-05
-5.31238e-05
-4.57315e-05
-3.88002e-05
-3.25563e-05
-2.70981e-05
-2.24366e-05
-1.85276e-05
-1.52953e-05
-1.26504e-05
-1.05018e-05
-8.7649e-06
-7.36469e-06
-6.23703e-06
-5.32758e-06
-4.59079e-06
-3.98923e-06
-3.49335e-06
-3.08088e-06
-2.73563e-06
-2.44561e-06
-2.2013e-06
-1.99441e-06
-1.81755e-06
-1.66438e-06
-1.52998e-06
-1.41096e-06
-1.30522e-06
-1.21139e-06
-1.12829e-06
-1.05448e-06
-9.88164e-07
-9.27213e-07
-8.69472e-07
-8.12978e-07
-7.56169e-07
-6.97927e-07
-6.37575e-07
-5.74746e-07
-5.09313e-07
-4.41263e-07
-3.70662e-07
-2.97545e-07
-2.21873e-07
-1.4312e-07
-6.48503e-08
5.15608e-05
5.15353e-05
5.14692e-05
5.13623e-05
5.12124e-05
5.10121e-05
5.0749e-05
5.04061e-05
4.99603e-05
4.9381e-05
4.86293e-05
4.76558e-05
4.6399e-05
4.47831e-05
4.27163e-05
4.00892e-05
3.6775e-05
3.26319e-05
2.75097e-05
2.12611e-05
1.37618e-05
4.93877e-06
-5.1924e-06
-1.64837e-05
-2.86124e-05
-4.10533e-05
-5.30831e-05
-6.38361e-05
-7.24197e-05
-7.80809e-05
-8.03798e-05
-7.93104e-05
-7.5308e-05
-6.91307e-05
-6.16613e-05
-5.37143e-05
-4.59171e-05
-3.86787e-05
-3.22207e-05
-2.66281e-05
-2.1896e-05
-1.79643e-05
-1.4743e-05
-1.21309e-05
-1.00277e-05
-8.34202e-06
-6.99459e-06
-5.91835e-06
-5.05709e-06
-4.36401e-06
-3.80099e-06
-3.33839e-06
-2.95435e-06
-2.63336e-06
-2.36415e-06
-2.1377e-06
-1.94597e-06
-1.78165e-06
-1.63847e-06
-1.51168e-06
-1.39823e-06
-1.29644e-06
-1.20535e-06
-1.12414e-06
-1.0516e-06
-9.86045e-07
-9.25439e-07
-8.67681e-07
-8.10893e-07
-7.53633e-07
-6.94922e-07
-6.34217e-07
-5.71253e-07
-5.0596e-07
-4.38327e-07
-3.68376e-07
-2.9606e-07
-2.21238e-07
-1.43251e-07
-6.54653e-08
5.16476e-05
5.16253e-05
5.15672e-05
5.14731e-05
5.13409e-05
5.11635e-05
5.09292e-05
5.06217e-05
5.02186e-05
4.96899e-05
4.89971e-05
4.8091e-05
4.69097e-05
4.53761e-05
4.33961e-05
4.0856e-05
3.76228e-05
3.35457e-05
2.84622e-05
2.22097e-05
1.46462e-05
5.67965e-06
-4.69111e-06
-1.63283e-05
-2.89068e-05
-4.188e-05
-5.44799e-05
-6.57737e-05
-7.47886e-05
-8.06963e-05
-8.30106e-05
-8.17252e-05
-7.73245e-05
-7.06478e-05
-6.26633e-05
-5.42513e-05
-4.60746e-05
-3.85519e-05
-3.18983e-05
-2.6185e-05
-2.13913e-05
-1.7442e-05
-1.42336e-05
-1.16538e-05
-9.5937e-06
-7.95604e-06
-6.65757e-06
-5.62877e-06
-4.81176e-06
-4.15863e-06
-3.63065e-06
-3.19811e-06
-2.83962e-06
-2.54041e-06
-2.2899e-06
-2.07955e-06
-1.90151e-06
-1.74848e-06
-1.6142e-06
-1.49412e-06
-1.38548e-06
-1.28702e-06
-1.19823e-06
-1.11862e-06
-1.04718e-06
-9.8233e-07
-9.22066e-07
-8.64318e-07
-8.0726e-07
-7.4955e-07
-6.90335e-07
-6.29206e-07
-5.66007e-07
-5.00734e-07
-4.33392e-07
-3.63969e-07
-2.92353e-07
-2.18318e-07
-1.41147e-07
-6.42019e-08
5.17221e-05
5.17026e-05
5.16515e-05
5.15687e-05
5.14519e-05
5.12945e-05
5.10854e-05
5.0809e-05
5.04432e-05
4.99589e-05
4.9318e-05
4.84714e-05
4.73569e-05
4.58966e-05
4.39941e-05
4.15322e-05
3.83725e-05
3.43562e-05
2.93099e-05
2.30575e-05
1.54405e-05
6.34941e-06
-4.23296e-06
-1.61792e-05
-2.91635e-05
-4.26208e-05
-5.5743e-05
-6.75355e-05
-7.69501e-05
-8.30873e-05
-8.54157e-05
-8.39285e-05
-7.9157e-05
-7.2018e-05
-6.35606e-05
-5.47256e-05
-4.62075e-05
-3.84317e-05
-3.1606e-05
-2.57881e-05
-2.09426e-05
-1.69802e-05
-1.37854e-05
-1.12357e-05
-9.21479e-06
-7.62018e-06
-6.36533e-06
-5.37861e-06
-4.60075e-06
-3.98284e-06
-3.4856e-06
-3.07933e-06
-2.74307e-06
-2.4628e-06
-2.22863e-06
-2.03242e-06
-1.86644e-06
-1.72335e-06
-1.59688e-06
-1.48259e-06
-1.37804e-06
-1.28237e-06
-1.19548e-06
-1.11719e-06
-1.0467e-06
-9.82492e-07
-9.22569e-07
-8.64858e-07
-8.07563e-07
-7.49417e-07
-6.89679e-07
-6.28067e-07
-5.64536e-07
-4.99157e-07
-4.31961e-07
-3.62915e-07
-2.9185e-07
-2.18462e-07
-1.41913e-07
-6.53239e-08
5.17824e-05
5.17651e-05
5.17199e-05
5.16463e-05
5.15423e-05
5.14015e-05
5.12133e-05
5.09626e-05
5.0628e-05
5.01807e-05
4.9583e-05
4.87861e-05
4.77277e-05
4.63289e-05
4.44917e-05
4.20962e-05
3.89992e-05
3.50354e-05
3.00223e-05
2.37721e-05
1.61121e-05
6.91771e-06
-3.84269e-06
-1.60515e-05
-2.9383e-05
-4.32576e-05
-5.6833e-05
-6.90606e-05
-7.88257e-05
-8.51648e-05
-8.75055e-05
-8.58404e-05
-8.07426e-05
-7.31989e-05
-6.43302e-05
-5.51307e-05
-4.63208e-05
-3.8331e-05
-3.13609e-05
-2.54563e-05
-2.05685e-05
-1.65965e-05
-1.34141e-05
-1.08902e-05
-8.90246e-06
-7.34388e-06
-6.12534e-06
-5.17358e-06
-4.42815e-06
-3.83932e-06
-3.36733e-06
-2.98246e-06
-2.66423e-06
-2.3993e-06
-2.17837e-06
-1.99368e-06
-1.83754e-06
-1.70254e-06
-1.58233e-06
-1.47257e-06
-1.37108e-06
-1.27739e-06
-1.19175e-06
-1.11428e-06
-1.04436e-06
-9.80513e-07
-9.20735e-07
-8.62929e-07
-8.05303e-07
-7.46644e-07
-6.86305e-07
-6.24117e-07
-5.6014e-07
-4.94524e-07
-4.27331e-07
-3.58518e-07
-2.87876e-07
-2.15048e-07
-1.39183e-07
-6.34757e-08
5.18267e-05
5.18112e-05
5.17704e-05
5.17039e-05
5.16096e-05
5.14815e-05
5.13094e-05
5.10784e-05
5.07677e-05
5.03488e-05
4.97844e-05
4.90258e-05
4.80106e-05
4.66594e-05
4.4873e-05
4.25292e-05
3.94812e-05
3.55587e-05
3.05721e-05
2.43241e-05
1.66311e-05
7.35616e-06
-3.54412e-06
-1.59604e-05
-2.95679e-05
-4.37758e-05
-5.77149e-05
-7.02932e-05
-8.0342e-05
-8.68449e-05
-8.91956e-05
-8.73857e-05
-8.20231e-05
-7.41522e-05
-6.49531e-05
-5.54626e-05
-4.64216e-05
-3.82631e-05
-3.118e-05
-2.52077e-05
-2.02873e-05
-1.6308e-05
-1.31353e-05
-1.06315e-05
-8.66912e-06
-7.13814e-06
-5.94738e-06
-5.02236e-06
-4.30176e-06
-3.73517e-06
-3.28241e-06
-2.91378e-06
-2.60919e-06
-2.35586e-06
-2.14503e-06
-1.96919e-06
-1.82067e-06
-1.69195e-06
-1.57657e-06
-1.47026e-06
-1.37102e-06
-1.27869e-06
-1.19386e-06
-1.1169e-06
-1.04731e-06
-9.83681e-07
-9.2397e-07
-8.6605e-07
-8.0812e-07
-7.48999e-07
-6.88112e-07
-6.25385e-07
-5.60975e-07
-4.95103e-07
-4.27866e-07
-3.5922e-07
-2.8892e-07
-2.16548e-07
-1.41133e-07
-6.55242e-08
5.18537e-05
5.18394e-05
5.18016e-05
5.17398e-05
5.1652e-05
5.15323e-05
5.13709e-05
5.1153e-05
5.08582e-05
5.04582e-05
4.99161e-05
4.91831e-05
4.81969e-05
4.68777e-05
4.51253e-05
4.28161e-05
3.9801e-05
3.59061e-05
3.09367e-05
2.46894e-05
1.69726e-05
7.64077e-06
-3.35778e-06
-1.59198e-05
-2.97213e-05
-4.4164e-05
-5.83599e-05
-7.11866e-05
-8.14367e-05
-8.8056e-05
-9.04136e-05
-8.85003e-05
-8.29493e-05
-7.48463e-05
-6.5414e-05
-5.57189e-05
-4.6516e-05
-3.82395e-05
-3.10771e-05
-2.50569e-05
-2.01128e-05
-1.61271e-05
-1.29598e-05
-1.04685e-05
-8.5222e-06
-7.00878e-06
-5.83577e-06
-4.92791e-06
-4.22328e-06
-3.67095e-06
-3.23046e-06
-2.87208e-06
-2.57601e-06
-2.32989e-06
-2.12535e-06
-1.95505e-06
-1.8113e-06
-1.68645e-06
-1.57396e-06
-1.46953e-06
-1.37132e-06
-1.27939e-06
-1.19457e-06
-1.11743e-06
-1.04757e-06
-9.83628e-07
-9.2354e-07
-8.65145e-07
-8.06628e-07
-7.46823e-07
-6.85207e-07
-6.21781e-07
-5.56781e-07
-4.90489e-07
-4.23036e-07
-3.54379e-07
-2.84254e-07
-2.1222e-07
-1.37346e-07
-6.26863e-08
5.18627e-05
5.18489e-05
5.18125e-05
5.17529e-05
5.16681e-05
5.15523e-05
5.13958e-05
5.11841e-05
5.08967e-05
5.05057e-05
4.9974e-05
4.92531e-05
4.82805e-05
4.69762e-05
4.52397e-05
4.29465e-05
3.99464e-05
3.60634e-05
3.11004e-05
2.48507e-05
1.71187e-05
7.75425e-06
-3.29863e-06
-1.59398e-05
-2.98457e-05
-4.44142e-05
-5.87472e-05
-7.17063e-05
-8.20634e-05
-8.87443e-05
-9.11051e-05
-8.91363e-05
-8.34846e-05
-7.52583e-05
-6.57021e-05
-5.58984e-05
-4.66091e-05
-3.82689e-05
-3.10627e-05
-2.50149e-05
-2.00556e-05
-1.6064e-05
-1.28968e-05
-1.04093e-05
-8.46899e-06
-6.96241e-06
-5.79658e-06
-4.89584e-06
-4.19797e-06
-3.65175e-06
-3.2165e-06
-2.86247e-06
-2.56999e-06
-2.32696e-06
-2.12517e-06
-1.95737e-06
-1.81584e-06
-1.69281e-06
-1.58162e-06
-1.47796e-06
-1.38002e-06
-1.28799e-06
-1.20284e-06
-1.12525e-06
-1.05493e-06
-9.90512e-07
-9.29942e-07
-8.71033e-07
-8.11955e-07
-7.51546e-07
-6.89316e-07
-6.25318e-07
-5.59844e-07
-4.93222e-07
-4.2561e-07
-3.56966e-07
-2.87008e-07
-2.15251e-07
-1.4063e-07
-6.57465e-08
5.18532e-05
5.18393e-05
5.18026e-05
5.17426e-05
5.16573e-05
5.15408e-05
5.13834e-05
5.11707e-05
5.0882e-05
5.04895e-05
4.9956e-05
4.92331e-05
4.82582e-05
4.69513e-05
4.52118e-05
4.29152e-05
3.99111e-05
3.60235e-05
3.10553e-05
2.47994e-05
1.70603e-05
7.6878e-06
-3.37418e-06
-1.60254e-05
-2.9942e-05
-4.45214e-05
-5.88649e-05
-7.18328e-05
-8.21962e-05
-8.888e-05
-9.12398e-05
-8.92668e-05
-8.36087e-05
-7.53748e-05
-6.5811e-05
-5.59998e-05
-4.6703e-05
-3.83552e-05
-3.11415e-05
-2.50865e-05
-2.01205e-05
-1.61225e-05
-1.29494e-05
-1.04565e-05
-8.51117e-06
-7e-06
-5.83005e-06
-4.9257e-06
-4.2247e-06
-3.67575e-06
-3.23809e-06
-2.8819e-06
-2.58752e-06
-2.34283e-06
-2.13962e-06
-1.97065e-06
-1.82812e-06
-1.70417e-06
-1.59208e-06
-1.48743e-06
-1.38841e-06
-1.29519e-06
-1.20879e-06
-1.12993e-06
-1.05835e-06
-9.92728e-07
-9.31008e-07
-8.71003e-07
-8.10878e-07
-7.49476e-07
-6.86321e-07
-6.21492e-07
-5.55315e-07
-4.88145e-07
-4.20156e-07
-3.5131e-07
-2.81318e-07
-2.09698e-07
-1.35486e-07
-6.16575e-08
5.18252e-05
5.18106e-05
5.1772e-05
5.1709e-05
5.16196e-05
5.14978e-05
5.13337e-05
5.11127e-05
5.08141e-05
5.04097e-05
4.98623e-05
4.91234e-05
4.81303e-05
4.68032e-05
4.50419e-05
4.27224e-05
3.96954e-05
3.57868e-05
3.08015e-05
2.45359e-05
1.6798e-05
7.44213e-06
-3.58351e-06
-1.61753e-05
-3.00087e-05
-4.44838e-05
-5.87105e-05
-7.15634e-05
-8.18321e-05
-8.84599e-05
-9.08148e-05
-8.88891e-05
-8.33191e-05
-7.5194e-05
-6.5739e-05
-5.60216e-05
-4.67963e-05
-3.84973e-05
-3.13127e-05
-2.52711e-05
-2.03068e-05
-1.63024e-05
-1.31177e-05
-1.06103e-05
-8.64931e-06
-7.12246e-06
-5.93747e-06
-5.01917e-06
-4.30557e-06
-3.74552e-06
-3.29832e-06
-2.93406e-06
-2.63287e-06
-2.38241e-06
-2.17429e-06
-2.00113e-06
-1.85506e-06
-1.72817e-06
-1.61366e-06
-1.507e-06
-1.40625e-06
-1.31147e-06
-1.2236e-06
-1.14331e-06
-1.07034e-06
-1.0034e-06
-9.40453e-07
-8.79338e-07
-8.18227e-07
-7.55962e-07
-6.92067e-07
-6.26622e-07
-5.59958e-07
-4.92436e-07
-4.24229e-07
-3.55298e-07
-2.85343e-07
-2.13851e-07
-1.39721e-07
-6.54069e-08
5.17792e-05
5.17633e-05
5.17212e-05
5.16528e-05
5.15558e-05
5.14242e-05
5.12478e-05
5.10115e-05
5.06944e-05
5.02682e-05
4.96952e-05
4.89267e-05
4.79001e-05
4.65359e-05
4.47345e-05
4.23736e-05
3.9306e-05
3.53608e-05
3.03479e-05
2.40697e-05
1.6342e-05
7.02742e-06
-3.91731e-06
-1.63824e-05
-3.00418e-05
-4.43024e-05
-5.82914e-05
-7.09122e-05
-8.09911e-05
-8.75078e-05
-8.98544e-05
-8.80247e-05
-8.26316e-05
-7.4725e-05
-6.5489e-05
-5.59618e-05
-4.6884e-05
-3.86886e-05
-3.1569e-05
-2.55614e-05
-2.06077e-05
-1.65973e-05
-1.33959e-05
-1.08656e-05
-8.87875e-06
-7.32544e-06
-6.11472e-06
-5.17223e-06
-4.43656e-06
-3.85695e-06
-3.39284e-06
-3.01423e-06
-2.70091e-06
-2.44009e-06
-2.22302e-06
-2.04207e-06
-1.8893e-06
-1.75677e-06
-1.6376e-06
-1.52715e-06
-1.42326e-06
-1.32577e-06
-1.2354e-06
-1.15274e-06
-1.07748e-06
-1.00835e-06
-9.4337e-07
-8.80432e-07
-8.17733e-07
-7.54114e-07
-6.89086e-07
-6.22705e-07
-5.5528e-07
-4.87152e-07
-4.18482e-07
-3.49224e-07
-2.79081e-07
-2.07561e-07
-1.33706e-07
-6.04699e-08
5.17163e-05
5.16984e-05
5.16515e-05
5.15752e-05
5.14674e-05
5.13217e-05
5.11276e-05
5.08695e-05
5.05261e-05
5.00685e-05
4.94588e-05
4.86481e-05
4.75738e-05
4.61569e-05
4.4299e-05
4.18797e-05
3.87555e-05
3.47602e-05
2.97108e-05
2.34188e-05
1.5711e-05
6.46229e-06
-4.35889e-06
-1.66342e-05
-3.00362e-05
-4.39819e-05
-5.76244e-05
-6.99089e-05
-7.97144e-05
-8.60721e-05
-8.84078e-05
-8.67167e-05
-8.15785e-05
-7.39871e-05
-6.50686e-05
-5.58189e-05
-4.69588e-05
-3.89184e-05
-3.18984e-05
-2.59453e-05
-2.10117e-05
-1.6997e-05
-1.3775e-05
-1.12147e-05
-9.19329e-06
-7.60407e-06
-6.35814e-06
-5.38241e-06
-4.61633e-06
-4.00974e-06
-3.52237e-06
-3.12409e-06
-2.79423e-06
-2.51938e-06
-2.29024e-06
-2.09888e-06
-1.93722e-06
-1.79732e-06
-1.67222e-06
-1.55712e-06
-1.44956e-06
-1.34904e-06
-1.25602e-06
-1.17088e-06
-1.09325e-06
-1.02188e-06
-9.54871e-07
-8.90174e-07
-8.26027e-07
-7.61274e-07
-6.95393e-07
-6.28392e-07
-5.60525e-07
-4.92091e-07
-4.2322e-07
-3.53851e-07
-2.83678e-07
-2.12189e-07
-1.38293e-07
-6.44143e-08
5.16379e-05
5.16175e-05
5.15643e-05
5.14779e-05
5.13563e-05
5.11928e-05
5.0976e-05
5.06902e-05
5.03133e-05
4.98158e-05
4.91596e-05
4.82953e-05
4.71607e-05
4.56772e-05
4.37482e-05
4.12562e-05
3.80617e-05
3.40055e-05
2.89134e-05
2.26083e-05
1.49311e-05
5.77198e-06
-4.88617e-06
-1.6915e-05
-2.99861e-05
-4.35308e-05
-5.6735e-05
-6.85968e-05
-7.80605e-05
-8.42205e-05
-8.65434e-05
-8.50257e-05
-8.02058e-05
-7.30088e-05
-6.449e-05
-5.55928e-05
-4.70118e-05
-3.91729e-05
-3.22847e-05
-2.64061e-05
-2.15029e-05
-1.74867e-05
-1.4242e-05
-1.16462e-05
-9.58282e-06
-7.94949e-06
-6.65996e-06
-5.64281e-06
-4.83867e-06
-4.19816e-06
-3.6814e-06
-3.25814e-06
-2.90717e-06
-2.61435e-06
-2.3697e-06
-2.16489e-06
-1.99169e-06
-1.84212e-06
-1.70917e-06
-1.5878e-06
-1.47522e-06
-1.37053e-06
-1.27382e-06
-1.18523e-06
-1.10432e-06
-1.02984e-06
-9.60003e-07
-8.92837e-07
-8.26635e-07
-7.60242e-07
-6.93093e-07
-6.25125e-07
-5.56516e-07
-4.87499e-07
-4.18159e-07
-3.48416e-07
-2.77965e-07
-2.06326e-07
-1.32561e-07
-5.95978e-08
5.15457e-05
5.15224e-05
5.14616e-05
5.13634e-05
5.12254e-05
5.10404e-05
5.07969e-05
5.04781e-05
5.00613e-05
4.95167e-05
4.88053e-05
4.78779e-05
4.66721e-05
4.51106e-05
4.30986e-05
4.0522e-05
3.72471e-05
3.3122e-05
2.79835e-05
2.16681e-05
1.40331e-05
4.98598e-06
-5.47401e-06
-1.72078e-05
-2.98874e-05
-4.29616e-05
-5.56558e-05
-6.70289e-05
-7.61e-05
-8.20342e-05
-8.43431e-05
-8.30239e-05
-7.85688e-05
-7.1826e-05
-6.37703e-05
-5.52854e-05
-4.70347e-05
-3.94375e-05
-3.27099e-05
-2.69248e-05
-2.20627e-05
-1.80493e-05
-1.47814e-05
-1.21466e-05
-1.00359e-05
-8.35216e-06
-7.01239e-06
-5.94731e-06
-5.09897e-06
-4.41899e-06
-3.86796e-06
-3.41554e-06
-3.03995e-06
-2.72621e-06
-2.46363e-06
-2.24337e-06
-2.05702e-06
-1.89651e-06
-1.75475e-06
-1.62644e-06
-1.50841e-06
-1.39927e-06
-1.29872e-06
-1.20662e-06
-1.1224e-06
-1.04486e-06
-9.72288e-07
-9.02808e-07
-8.34773e-07
-7.67023e-07
-6.98935e-07
-6.30356e-07
-5.61365e-07
-4.92108e-07
-4.22615e-07
-3.52776e-07
-2.82277e-07
-2.10625e-07
-1.36771e-07
-6.316e-08
5.14419e-05
5.14152e-05
5.1346e-05
5.12341e-05
5.10776e-05
5.08685e-05
5.05945e-05
5.02384e-05
4.97767e-05
4.91788e-05
4.84054e-05
4.74069e-05
4.61215e-05
4.4473e-05
4.23689e-05
3.96993e-05
3.63366e-05
3.21381e-05
2.69524e-05
2.06315e-05
1.30503e-05
4.1356e-06
-6.09656e-06
-1.74964e-05
-2.97381e-05
-4.2291e-05
-5.44248e-05
-6.52648e-05
-7.39101e-05
-7.96007e-05
-8.18948e-05
-8.07899e-05
-7.67289e-05
-7.04793e-05
-6.29307e-05
-5.49017e-05
-4.70206e-05
-3.96977e-05
-3.31556e-05
-2.74812e-05
-2.26708e-05
-1.86655e-05
-1.53758e-05
-1.27004e-05
-1.0539e-05
-8.80025e-06
-7.40522e-06
-6.28711e-06
-5.38966e-06
-4.6656e-06
-4.07609e-06
-3.59076e-06
-3.18725e-06
-2.84976e-06
-2.56679e-06
-2.32897e-06
-2.12762e-06
-1.95457e-06
-1.80258e-06
-1.66609e-06
-1.54149e-06
-1.42693e-06
-1.32165e-06
-1.22522e-06
-1.13696e-06
-1.05567e-06
-9.79717e-07
-9.07347e-07
-8.36963e-07
-7.67398e-07
-6.97967e-07
-6.28415e-07
-5.5871e-07
-4.88905e-07
-4.18963e-07
-3.48744e-07
-2.77936e-07
-2.06072e-07
-1.32235e-07
-5.92772e-08
5.13289e-05
5.12986e-05
5.122e-05
5.10934e-05
5.09165e-05
5.0681e-05
5.03739e-05
4.99771e-05
4.94665e-05
4.88108e-05
4.79702e-05
4.68949e-05
4.55238e-05
4.37819e-05
4.15797e-05
3.88118e-05
3.53574e-05
3.10839e-05
2.58528e-05
1.95325e-05
1.20167e-05
3.25171e-06
-6.72934e-06
-1.7767e-05
-2.95392e-05
-4.15389e-05
-5.3083e-05
-6.33663e-05
-7.15696e-05
-7.70085e-05
-7.92874e-05
-7.84032e-05
-7.47497e-05
-6.90128e-05
-6.19958e-05
-5.445e-05
-4.69657e-05
-3.99411e-05
-3.36044e-05
-2.80555e-05
-2.3307e-05
-1.93159e-05
-1.60072e-05
-1.32915e-05
-1.10778e-05
-9.28161e-06
-7.82821e-06
-6.65374e-06
-5.70385e-06
-4.93254e-06
-4.30162e-06
-3.78075e-06
-3.34706e-06
-2.98393e-06
-2.67905e-06
-2.42245e-06
-2.20515e-06
-2.01879e-06
-1.85597e-06
-1.71083e-06
-1.57933e-06
-1.45912e-06
-1.34901e-06
-1.24826e-06
-1.15602e-06
-1.07111e-06
-9.91975e-07
-9.16937e-07
-8.44454e-07
-7.73349e-07
-7.02865e-07
-6.32639e-07
-5.62522e-07
-4.92466e-07
-4.22364e-07
-3.52041e-07
-2.81172e-07
-2.09282e-07
-1.35374e-07
-6.19285e-08
5.12094e-05
5.11752e-05
5.10867e-05
5.09445e-05
5.0746e-05
5.04827e-05
5.01405e-05
4.97008e-05
4.91386e-05
4.8422e-05
4.75107e-05
4.63552e-05
4.48946e-05
4.30558e-05
4.07525e-05
3.7884e-05
3.43373e-05
2.99899e-05
2.47174e-05
1.84047e-05
1.09647e-05
2.36299e-06
-7.3508e-06
-1.8009e-05
-2.92951e-05
-4.07279e-05
-5.16728e-05
-6.13947e-05
-6.91549e-05
-7.43424e-05
-7.66057e-05
-7.59407e-05
-7.26937e-05
-6.74714e-05
-6.09929e-05
-5.39418e-05
-4.68689e-05
-4.01582e-05
-3.40409e-05
-2.86293e-05
-2.39518e-05
-1.99812e-05
-1.66573e-05
-1.39032e-05
-1.16377e-05
-9.78323e-06
-8.27006e-06
-7.03748e-06
-6.03324e-06
-5.2127e-06
-4.53841e-06
-3.98015e-06
-3.51458e-06
-3.12434e-06
-2.7963e-06
-2.51988e-06
-2.2857e-06
-2.0852e-06
-1.91075e-06
-1.7562e-06
-1.61709e-06
-1.4906e-06
-1.3751e-06
-1.26953e-06
-1.1729e-06
-1.08399e-06
-1.0013e-06
-9.23248e-07