/*--------------------------------*- C++ -*----------------------------------*\
| =========                 |                                                 |
| \\      /  F ield         | OpenFOAM: The Open Source CFD Toolbox           |
|  \\    /   O peration     | Version:  2512                                  |
|   \\  /    A nd           | Website:  www.openfoam.com                      |
|    \\/     M anipulation  |                                                 |
\*---------------------------------------------------------------------------*/
FoamFile
{
    version     2.0;
    format      ascii;
    arch        "LSB;label=32;scalar=64";
    class       volScalarField;
    location    "100";
    object      p;
}
// * * * * * * * * * * * * * * * * * * * * * * * * * * * * * * * * * * * * * //

dimensions      [0 2 -2 0 0 0 0];

internalField   nonuniform List<scalar> 
229904
(
0.000116281
0.000116079
0.000115566
0.000114742
0.000113593
0.000112074
0.00011012
0.000107655
0.000104591
0.000100821
9.62231e-05
9.0659e-05
8.39758e-05
7.601e-05
6.65933e-05
5.55617e-05
4.27685e-05
2.81023e-05
1.15081e-05
-6.98703e-06
-2.72466e-05
-4.89964e-05
-7.18044e-05
-9.50717e-05
-0.000118042
-0.000139833
-0.0001595
-0.000176114
-0.000188867
-0.000197165
-0.000200714
-0.000199556
-0.000194066
-0.000184889
-0.000172845
-0.000158824
-0.000143687
-0.000128195
-0.000112964
-9.84596e-05
-8.49962e-05
-7.27609e-05
-6.18364e-05
-5.22258e-05
-4.38764e-05
-3.66993e-05
-3.05855e-05
-2.54171e-05
-2.10764e-05
-1.7451e-05
-1.44374e-05
-1.19431e-05
-9.88673e-06
-8.19889e-06
-6.82068e-06
-5.70279e-06
-4.80386e-06
-4.08903e-06
-3.52855e-06
-3.09674e-06
-2.77115e-06
-2.5319e-06
-2.36112e-06
-2.24248e-06
-2.1608e-06
-2.10189e-06
-2.05256e-06
-2.00097e-06
-1.93691e-06
-1.85255e-06
-1.74265e-06
-1.60515e-06
-1.44103e-06
-1.25443e-06
-1.05189e-06
-8.41792e-07
-6.33061e-07
-4.34637e-07
-2.54859e-07
-1.10168e-07
0.000116341
0.000116141
0.000115633
0.000114816
0.000113678
0.000112172
0.000110235
0.000107791
0.00010475
0.000101008
9.64416e-05
9.0912e-05
8.42655e-05
7.63374e-05
6.6957e-05
5.59575e-05
4.31882e-05
2.85329e-05
1.19308e-05
-6.59706e-06
-2.69194e-05
-4.87667e-05
-7.17084e-05
-9.51433e-05
-0.000118307
-0.000140306
-0.000160174
-0.000176962
-0.000189841
-0.000198201
-0.000201738
-0.000200499
-0.000194869
-0.000185515
-0.000173279
-0.000159072
-0.00014377
-0.000128141
-0.000112808
-9.82323e-05
-8.4726e-05
-7.24709e-05
-6.15444e-05
-5.19445e-05
-4.36142e-05
-3.64612e-05
-3.03735e-05
-2.52317e-05
-2.09166e-05
-1.73151e-05
-1.43233e-05
-1.18483e-05
-9.80895e-06
-8.13576e-06
-6.77007e-06
-5.66279e-06
-4.77276e-06
-4.06522e-06
-3.51053e-06
-3.08307e-06
-2.76044e-06
-2.52288e-06
-2.35267e-06
-2.23367e-06
-2.15097e-06
-2.09064e-06
-2.03979e-06
-1.9868e-06
-1.92175e-06
-1.83694e-06
-1.7273e-06
-1.59078e-06
-1.42836e-06
-1.24404e-06
-1.04422e-06
-8.37003e-07
-6.31062e-07
-4.34972e-07
-2.56626e-07
-1.11242e-07
0.000116459
0.000116263
0.000115764
0.000114963
0.000113845
0.000112366
0.000110462
0.000108058
0.000105065
0.000101378
9.68736e-05
9.14122e-05
8.48386e-05
7.69852e-05
6.76773e-05
5.6742e-05
4.4021e-05
2.93882e-05
1.27716e-05
-5.81959e-06
-2.62654e-05
-4.83049e-05
-7.15114e-05
-9.5279e-05
-0.000118829
-0.00014124
-0.000161511
-0.000178649
-0.00019178
-0.000200263
-0.000203777
-0.000202374
-0.000196466
-0.000186759
-0.00017414
-0.000159562
-0.000143931
-0.000128033
-0.000112496
-9.77797e-05
-8.41889e-05
-7.18951e-05
-6.0965e-05
-5.13866e-05
-4.30944e-05
-3.5989e-05
-2.99533e-05
-2.4864e-05
-2.05996e-05
-1.70454e-05
-1.40965e-05
-1.16597e-05
-9.65375e-06
-8.00944e-06
-6.6685e-06
-5.58225e-06
-4.70991e-06
-4.01702e-06
-3.47405e-06
-3.05551e-06
-2.73913e-06
-2.50532e-06
-2.33666e-06
-2.2174e-06
-2.13308e-06
-2.07027e-06
-2.01661e-06
-1.96096e-06
-1.89385e-06
-1.80792e-06
-1.69835e-06
-1.56321e-06
-1.40346e-06
-1.22292e-06
-1.02768e-06
-8.25424e-07
-6.24332e-07
-4.32396e-07
-2.56775e-07
-1.11544e-07
0.000116633
0.000116442
0.000115958
0.000115179
0.000114092
0.000112652
0.000110798
0.000108453
0.00010553
0.000101923
9.75103e-05
9.215e-05
8.56846e-05
7.79423e-05
6.87425e-05
5.79036e-05
4.52558e-05
3.06585e-05
1.40231e-05
-4.65915e-06
-2.52854e-05
-4.7608e-05
-7.12062e-05
-9.54682e-05
-0.000119593
-0.000142621
-0.000163495
-0.000181157
-0.000194668
-0.000203336
-0.000206816
-0.000205167
-0.00019884
-0.000188602
-0.00017541
-0.000160278
-0.000144158
-0.000127861
-0.000112023
-9.71012e-05
-8.33874e-05
-7.10384e-05
-6.01047e-05
-5.05596e-05
-4.23248e-05
-3.52905e-05
-2.93322e-05
-2.43209e-05
-2.01315e-05
-1.66471e-05
-1.37616e-05
-1.1381e-05
-9.42426e-06
-7.82248e-06
-6.518e-06
-5.46281e-06
-4.61669e-06
-3.94554e-06
-3.42009e-06
-3.01499e-06
-2.70812e-06
-2.48019e-06
-2.31419e-06
-2.19493e-06
-2.1086e-06
-2.04251e-06
-1.985e-06
-1.92565e-06
-1.85558e-06
-1.76797e-06
-1.65835e-06
-1.52497e-06
-1.36879e-06
-1.19341e-06
-1.0045e-06
-8.09179e-07
-6.14947e-07
-4.29002e-07
-2.57505e-07
-1.13079e-07
0.000116858
0.000116675
0.000116209
0.000115459
0.000114412
0.000113024
0.000111232
0.000108965
0.000106133
0.000102632
9.83384e-05
9.31103e-05
8.67867e-05
7.91907e-05
7.01338e-05
5.94232e-05
4.68742e-05
3.23273e-05
1.56719e-05
-3.12463e-06
-2.39825e-05
-4.66725e-05
-7.07824e-05
-9.56936e-05
-0.000120578
-0.000144422
-0.000166097
-0.000184457
-0.000198477
-0.000207393
-0.000210826
-0.000208847
-0.00020196
-0.000191015
-0.000177063
-0.000161198
-0.000144434
-0.000127614
-0.000111386
-9.61988e-05
-8.23283e-05
-6.99108e-05
-5.89758e-05
-4.94768e-05
-4.13189e-05
-3.4379e-05
-2.85224e-05
-2.36135e-05
-1.95223e-05
-1.61291e-05
-1.3326e-05
-1.10187e-05
-9.12584e-06
-7.57922e-06
-6.32202e-06
-5.30712e-06
-4.49502e-06
-3.85214e-06
-3.34948e-06
-2.96186e-06
-2.66743e-06
-2.44724e-06
-2.28484e-06
-2.16576e-06
-2.07705e-06
-2.0069e-06
-1.94459e-06
-1.88052e-06
-1.80661e-06
-1.71666e-06
-1.60667e-06
-1.47513e-06
-1.32301e-06
-1.15366e-06
-9.72242e-07
-7.85204e-07
-5.99226e-07
-4.20575e-07
-2.54342e-07
-1.11886e-07
0.00011713
0.000116955
0.000116511
0.000115797
0.000114798
0.000113471
0.000111757
0.000109583
0.000106861
0.000103488
9.93404e-05
9.42735e-05
8.81233e-05
8.07069e-05
7.18263e-05
6.12755e-05
4.88516e-05
3.43721e-05
1.76994e-05
-1.22902e-06
-2.23623e-05
-4.54952e-05
-7.02277e-05
-9.59342e-05
-0.000121753
-0.000146609
-0.00016928
-0.000188512
-0.000203166
-0.000212393
-0.000215768
-0.000213375
-0.000205787
-0.00019396
-0.000179062
-0.000162293
-0.000144739
-0.000127283
-0.000110582
-9.50765e-05
-8.10212e-05
-6.85262e-05
-5.75946e-05
-4.81559e-05
-4.00946e-05
-3.32716e-05
-2.75403e-05
-2.27566e-05
-1.87852e-05
-1.55029e-05
-1.28e-05
-1.05812e-05
-8.76552e-06
-7.28542e-06
-6.08518e-06
-5.11881e-06
-4.34772e-06
-3.73895e-06
-3.26381e-06
-2.8974e-06
-2.61812e-06
-2.40753e-06
-2.24986e-06
-2.13152e-06
-2.04058e-06
-1.96629e-06
-1.89895e-06
-1.82996e-06
-1.75209e-06
-1.65985e-06
-1.54976e-06
-1.42059e-06
-1.27333e-06
-1.11102e-06
-9.38296e-07
-7.60824e-07
-5.84367e-07
-4.14152e-07
-2.54022e-07
-1.1363e-07
0.000117442
0.000117277
0.000116858
0.000116184
0.000115241
0.000113985
0.00011236
0.000110293
0.000107699
0.000104474
0.000100495
9.56151e-05
8.9667e-05
8.2461e-05
7.37884e-05
6.34278e-05
5.11554e-05
3.67625e-05
2.00792e-05
1.00795e-06
-2.04358e-05
-4.40765e-05
-6.95304e-05
-9.61658e-05
-0.000123084
-0.000149137
-0.000172994
-0.000193266
-0.000208682
-0.000218282
-0.000221586
-0.000218695
-0.000210265
-0.000197384
-0.000181364
-0.000163528
-0.000145048
-0.000126853
-0.000109609
-9.37414e-05
-7.94801e-05
-6.69035e-05
-5.5983e-05
-4.66198e-05
-3.86748e-05
-3.19903e-05
-2.6406e-05
-2.17685e-05
-1.79364e-05
-1.47825e-05
-1.21953e-05
-1.00785e-05
-8.35138e-06
-6.94741e-06
-5.81223e-06
-4.90122e-06
-4.17687e-06
-3.60691e-06
-3.16305e-06
-2.82066e-06
-2.55855e-06
-2.35884e-06
-2.20662e-06
-2.08934e-06
-1.9962e-06
-1.91763e-06
-1.84506e-06
-1.77094e-06
-1.68896e-06
-1.59437e-06
-1.48423e-06
-1.35761e-06
-1.21549e-06
-1.06062e-06
-8.9706e-07
-7.29647e-07
-5.63195e-07
-4.01872e-07
-2.48395e-07
-1.11206e-07
0.000117786
0.000117632
0.000117242
0.000116613
0.00011573
0.000114554
0.000113026
0.000111079
0.000108627
0.000105567
0.000101776
9.71064e-05
9.13857e-05
8.44175e-05
7.59816e-05
6.58399e-05
5.37456e-05
3.94599e-05
2.27772e-05
3.55908e-06
-1.82202e-05
-4.24207e-05
-6.868e-05
-9.63626e-05
-0.00012453
-0.000151953
-0.000177174
-0.000198651
-0.000214952
-0.000224985
-0.000228207
-0.000224734
-0.000215326
-0.000201226
-0.000183915
-0.000164862
-0.000145336
-0.000126313
-0.000108467
-9.22053e-05
-7.77247e-05
-6.50671e-05
-5.4168e-05
-4.48966e-05
-3.70869e-05
-3.05609e-05
-2.51434e-05
-2.06707e-05
-1.69948e-05
-1.39845e-05
-1.15261e-05
-9.52253e-06
-7.89349e-06
-6.57363e-06
-5.51024e-06
-4.66032e-06
-3.98758e-06
-3.46053e-06
-3.05132e-06
-2.73565e-06
-2.49277e-06
-2.30552e-06
-2.15996e-06
-2.0447e-06
-1.9502e-06
-1.86812e-06
-1.79108e-06
-1.71256e-06
-1.62716e-06
-1.53089e-06
-1.42133e-06
-1.29783e-06
-1.16137e-06
-1.01439e-06
-8.60351e-07
-7.03281e-07
-5.47026e-07
-3.94694e-07
-2.478e-07
-1.13198e-07
0.000118154
0.000118012
0.000117653
0.000117072
0.000116255
0.000115163
0.000113742
0.000111923
0.000109624
0.000106743
0.000103156
9.87143e-05
9.32421e-05
8.65351e-05
7.83612e-05
6.84644e-05
5.65733e-05
4.24168e-05
2.57494e-05
6.38766e-06
-1.57412e-05
-4.05391e-05
-6.76704e-05
-9.64991e-05
-0.000126047
-0.000154993
-0.000181743
-0.000204578
-0.00022188
-0.000232407
-0.000235534
-0.0002314
-0.000220884
-0.000205409
-0.000186654
-0.000166252
-0.000145577
-0.000125656
-0.000107164
-9.04861e-05
-7.57807e-05
-6.30479e-05
-5.2183e-05
-4.30198e-05
-3.53635e-05
-2.90139e-05
-2.378e-05
-1.94875e-05
-1.59815e-05
-1.31269e-05
-1.08075e-05
-8.92566e-06
-7.40161e-06
-6.17147e-06
-5.18449e-06
-4.39945e-06
-3.78147e-06
-3.29987e-06
-2.92727e-06
-2.63975e-06
-2.4171e-06
-2.24299e-06
-2.10458e-06
-1.99176e-06
-1.89629e-06
-1.81112e-06
-1.73001e-06
-1.64749e-06
-1.55903e-06
-1.46135e-06
-1.35254e-06
-1.23223e-06
-1.10141e-06
-9.62205e-07
-8.17515e-07
-6.70574e-07
-5.24308e-07
-3.80848e-07
-2.40764e-07
-1.10048e-07
0.000118538
0.000118409
0.000118081
0.00011755
0.000116802
0.000115799
0.000114488
0.000112804
0.000110666
0.000107973
0.000104602
0.000100403
9.51947e-05
8.87672e-05
8.08758e-05
7.12463e-05
5.95813e-05
4.55757e-05
2.89416e-05
9.44625e-06
-1.30351e-05
-3.84521e-05
-6.65017e-05
-9.6552e-05
-0.000127585
-0.000158186
-0.000186609
-0.000210939
-0.000229349
-0.000240422
-0.000243444
-0.000238577
-0.000226833
-0.000209847
-0.000189515
-0.000167653
-0.00014575
-0.000124878
-0.000105714
-8.86097e-05
-7.36821e-05
-6.08844e-05
-5.00681e-05
-4.10292e-05
-3.35422e-05
-2.73839e-05
-2.23471e-05
-1.82468e-05
-1.49212e-05
-1.22311e-05
-1.00582e-05
-8.30413e-06
-6.88995e-06
-5.75353e-06
-4.84627e-06
-4.12899e-06
-3.56825e-06
-3.13421e-06
-2.79999e-06
-2.54207e-06
-2.34086e-06
-2.18097e-06
-2.05076e-06
-1.94145e-06
-1.84616e-06
-1.75906e-06
-1.67501e-06
-1.58948e-06
-1.49876e-06
-1.40022e-06
-1.29245e-06
-1.17538e-06
-1.04998e-06
-9.18158e-07
-7.82272e-07
-6.44828e-07
-5.07895e-07
-3.72696e-07
-2.38853e-07
-1.11251e-07
0.000118929
0.000118813
0.000118517
0.000118037
0.000117359
0.000116447
0.000115249
0.000113703
0.00011173
0.00010923
0.000106081
0.000102132
9.71983e-05
9.10626e-05
8.34685e-05
7.41234e-05
6.27038e-05
4.88696e-05
3.22884e-05
1.26755e-05
-1.01502e-05
-3.61911e-05
-6.5183e-05
-9.6503e-05
-0.000129097
-0.000161453
-0.000191664
-0.000217602
-0.000237211
-0.000248879
-0.000251787
-0.000246123
-0.000233052
-0.000214438
-0.000192425
-0.000169021
-0.000145835
-0.000123985
-0.000104138
-8.66108e-05
-7.1471e-05
-5.86222e-05
-4.78695e-05
-3.89692e-05
-3.16644e-05
-2.57084e-05
-2.08778e-05
-1.6977e-05
-1.38378e-05
-1.1317e-05
-9.29398e-06
-7.67019e-06
-6.36748e-06
-5.32578e-06
-4.49893e-06
-3.84987e-06
-3.34668e-06
-2.96036e-06
-2.66449e-06
-2.43601e-06
-2.25607e-06
-2.11032e-06
-1.98843e-06
-1.883e-06
-1.78848e-06
-1.70019e-06
-1.61397e-06
-1.52614e-06
-1.43369e-06
-1.33461e-06
-1.22796e-06
-1.11397e-06
-9.93673e-07
-8.68794e-07
-7.41239e-07
-6.12864e-07
-4.8497e-07
-3.57989e-07
-2.30843e-07
-1.07897e-07
0.000119317
0.000119214
0.00011895
0.000118521
0.000117913
0.000117091
0.000116006
0.000114598
0.000112789
0.000110483
0.000107557
0.00010386
9.92046e-05
9.33663e-05
8.60775e-05
7.70276e-05
6.58676e-05
5.22219e-05
3.57135e-05
1.60036e-05
-7.14773e-06
-3.38005e-05
-6.37342e-05
-9.63412e-05
-0.000130534
-0.000164706
-0.000196783
-0.000224413
-0.000245291
-0.000257591
-0.00026038
-0.000253871
-0.000239396
-0.000219073
-0.000195307
-0.000170316
-0.000145825
-0.000122992
-0.00010247
-8.45336e-05
-6.91984e-05
-5.63148e-05
-4.56401e-05
-3.68903e-05
-2.97767e-05
-2.40296e-05
-1.94097e-05
-1.57116e-05
-1.27608e-05
-1.04104e-05
-8.53797e-06
-7.04439e-06
-5.85279e-06
-4.90536e-06
-4.15851e-06
-3.57744e-06
-3.13164e-06
-2.79292e-06
-2.53527e-06
-2.3361e-06
-2.17736e-06
-2.04587e-06
-1.93269e-06
-1.83183e-06
-1.73898e-06
-1.6505e-06
-1.56308e-06
-1.4737e-06
-1.37995e-06
-1.28037e-06
-1.17448e-06
-1.06284e-06
-9.46636e-07
-8.27472e-07
-7.06917e-07
-5.86285e-07
-4.66212e-07
-3.46438e-07
-2.25257e-07
-1.06528e-07
0.000119694
0.000119602
0.00011937
0.00011899
0.00011845
0.000117715
0.00011674
0.000115466
0.000113818
0.000111701
0.000108994
0.000105545
0.000101164
9.56209e-05
8.86373e-05
7.9886e-05
6.89928e-05
5.55482e-05
3.91305e-05
1.93471e-05
-4.1025e-06
-3.13383e-05
-6.21883e-05
-9.60652e-05
-0.000131855
-0.000167858
-0.000201834
-0.000231197
-0.000253384
-0.000266341
-0.000269009
-0.000261629
-0.000245707
-0.000223632
-0.000198088
-0.000171501
-0.000145716
-0.000121923
-0.000100752
-8.24321e-05
-6.69231e-05
-5.40217e-05
-4.3437e-05
-3.48451e-05
-2.79263e-05
-2.23884e-05
-1.79778e-05
-1.44795e-05
-1.17138e-05
-9.52995e-06
-7.80382e-06
-6.43621e-06
-5.35159e-06
-4.49462e-06
-3.82447e-06
-3.30856e-06
-2.91779e-06
-2.6246e-06
-2.40333e-06
-2.23188e-06
-2.09309e-06
-1.97504e-06
-1.87026e-06
-1.77417e-06
-1.68363e-06
-1.59592e-06
-1.50835e-06
-1.41842e-06
-1.32418e-06
-1.22464e-06
-1.11975e-06
-1.01043e-06
-8.9806e-07
-7.84258e-07
-6.70351e-07
-5.57218e-07
-4.44934e-07
-3.32642e-07
-2.1809e-07
-1.04603e-07
0.00012005
0.00011997
0.000119766
0.000119433
0.000118957
0.000118305
0.000117434
0.000116287
0.000114791
0.000112855
0.000110356
0.000107143
0.000103026
9.77678e-05
9.10809e-05
8.26225e-05
7.19954e-05
5.87576e-05
4.24448e-05
2.2612e-05
-1.10126e-06
-2.88759e-05
-6.05911e-05
-9.56849e-05
-0.000133022
-0.000170818
-0.00020667
-0.00023776
-0.00026126
-0.00027488
-0.000277431
-0.000269177
-0.000251808
-0.000227991
-0.000200693
-0.000172551
-0.00014552
-0.000120814
-9.90384e-05
-8.03696e-05
-6.4712e-05
-5.18092e-05
-4.13234e-05
-3.28919e-05
-2.61658e-05
-2.08321e-05
-1.66238e-05
-1.33179e-05
-1.07295e-05
-8.70485e-06
-7.11803e-06
-5.8698e-06
-4.88619e-06
-4.11451e-06
-3.51671e-06
-3.0624e-06
-2.72371e-06
-2.47356e-06
-2.28649e-06
-2.14087e-06
-2.02047e-06
-1.9147e-06
-1.81761e-06
-1.72602e-06
-1.63787e-06
-1.55119e-06
-1.46376e-06
-1.37343e-06
-1.27856e-06
-1.17853e-06
-1.07371e-06
-9.65408e-07
-8.55294e-07
-7.45075e-07
-6.35966e-07
-5.28535e-07
-4.22416e-07
-3.16284e-07
-2.07558e-07
-9.9597e-08
0.000120376
0.000120307
0.00012013
0.00011984
0.000119422
0.000118846
0.00011807
0.000117039
0.000115684
0.000113913
0.000111607
0.000108614
0.000104742
9.97494e-05
9.33413e-05
8.51607e-05
7.47895e-05
6.17561e-05
4.55568e-05
2.56972e-05
1.75961e-06
-2.64962e-05
-5.90012e-05
-9.52219e-05
-0.00013401
-0.000173502
-0.000211144
-0.000243896
-0.000268669
-0.000282938
-0.00028538
-0.000276282
-0.000257515
-0.000232024
-0.000203054
-0.000173446
-0.000145255
-0.000119713
-9.73907e-05
-7.84149e-05
-6.26352e-05
-4.97445e-05
-3.93607e-05
-3.10854e-05
-2.45424e-05
-1.94003e-05
-1.53803e-05
-1.22526e-05
-9.82782e-06
-7.94954e-06
-6.49022e-06
-5.35066e-06
-4.45856e-06
-3.76393e-06
-3.23155e-06
-2.8331e-06
-2.54176e-06
-2.33073e-06
-2.17464e-06
-2.05227e-06
-1.94828e-06
-1.85349e-06
-1.76344e-06
-1.67631e-06
-1.59106e-06
-1.50629e-06
-1.42011e-06
-1.33051e-06
-1.23605e-06
-1.13637e-06
-1.03222e-06
-9.25297e-07
-8.17585e-07
-7.10974e-07
-6.0666e-07
-5.04999e-07
-4.05275e-07
-3.05746e-07
-2.03349e-07
-1.00639e-07
0.000120666
0.000120606
0.000120453
0.0001202
0.000119834
0.000119324
0.000118632
0.000117705
0.000116474
0.00011485
0.000112715
0.000109917
0.000106264
0.000101511
9.53542e-05
8.74264e-05
7.7291e-05
6.44504e-05
4.83658e-05
2.84983e-05
4.37837e-06
-2.42898e-05
-5.74868e-05
-9.4709e-05
-0.0001348
-0.000175831
-0.000215111
-0.000249395
-0.00027535
-0.000290228
-0.000292574
-0.000282697
-0.000262638
-0.000235607
-0.000205111
-0.000174179
-0.000144953
-0.000118673
-9.58776e-05
-7.66425e-05
-6.07673e-05
-4.78987e-05
-3.76147e-05
-2.94848e-05
-2.3109e-05
-1.81398e-05
-1.42886e-05
-1.132e-05
-9.04115e-06
-7.29299e-06
-5.94659e-06
-4.90279e-06
-4.09092e-06
-3.46367e-06
-2.98848e-06
-2.63896e-06
-2.38911e-06
-2.21225e-06
-2.08295e-06
-1.98027e-06
-1.88976e-06
-1.80356e-06
-1.7187e-06
-1.63464e-06
-1.55126e-06
-1.46763e-06
-1.38203e-06
-1.29251e-06
-1.19769e-06
-1.09741e-06
-9.92722e-07
-8.85717e-07
-7.78737e-07
-6.73906e-07
-5.72486e-07
-4.74724e-07
-3.79664e-07
-2.85298e-07
-1.88486e-07
-9.22399e-08
0.000120912
0.00012086
0.000120727
0.000120506
0.000120182
0.000119729
0.000119108
0.000118268
0.000117141
0.000115641
0.00011365
0.000111018
0.000107551
0.000103001
9.70604e-05
8.93507e-05
7.94209e-05
6.67518e-05
5.0775e-05
3.09138e-05
6.65357e-06
-2.23499e-05
-5.61217e-05
-9.41871e-05
-0.000135386
-0.000177738
-0.000218435
-0.000254054
-0.000281047
-0.000296464
-0.000298734
-0.000288179
-0.000266995
-0.000238627
-0.000206815
-0.000174751
-0.00014465
-0.000117753
-9.45676e-05
-7.51239e-05
-5.91775e-05
-4.63353e-05
-3.61415e-05
-2.81384e-05
-2.1906e-05
-1.70836e-05
-1.3375e-05
-1.05405e-05
-8.38432e-06
-6.7454e-06
-5.49346e-06
-4.52938e-06
-3.78401e-06
-3.21248e-06
-2.7847e-06
-2.47592e-06
-2.26082e-06
-2.11264e-06
-2.00579e-06
-1.91951e-06
-1.84013e-06
-1.76098e-06
-1.68046e-06
-1.5992e-06
-1.51787e-06
-1.43592e-06
-1.3517e-06
-1.26321e-06
-1.16905e-06
-1.06915e-06
-9.64838e-07
-8.58522e-07
-7.52887e-07
-6.50309e-07
-5.52157e-07
-4.58626e-07
-3.68575e-07
-2.79719e-07
-1.8846e-07
-9.66866e-08
0.000121109
0.000121063
0.000120946
0.000120749
0.000120459
0.00012005
0.000119485
0.000118712
0.000117668
0.000116265
0.000114388
0.000111887
0.000108566
0.000104178
9.84084e-05
9.08733e-05
8.11096e-05
6.85814e-05
5.26972e-05
3.28505e-05
8.49094e-06
-2.07649e-05
-5.49787e-05
-9.37008e-05
-0.000135771
-0.000179169
-0.000220996
-0.000257688
-0.000285522
-0.000301383
-0.000303599
-0.000292504
-0.000270419
-0.000240982
-0.000208125
-0.000175169
-0.000144384
-0.000117011
-9.35276e-05
-7.39279e-05
-5.79322e-05
-4.5116e-05
-3.49968e-05
-2.70955e-05
-2.09767e-05
-1.62698e-05
-1.26728e-05
-9.94299e-06
-7.88266e-06
-6.32895e-06
-5.15043e-06
-4.24796e-06
-3.55362e-06
-3.0246e-06
-2.63286e-06
-2.35501e-06
-2.16621e-06
-2.03954e-06
-1.94917e-06
-1.87443e-06
-1.80227e-06
-1.72704e-06
-1.64831e-06
-1.56772e-06
-1.4866e-06
-1.40471e-06
-1.32044e-06
-1.23167e-06
-1.13696e-06
-1.0363e-06
-9.31186e-07
-8.24324e-07
-7.18697e-07
-6.16924e-07
-5.20499e-07
-4.29611e-07
-3.43016e-07
-2.58304e-07
-1.71969e-07
-8.65514e-08
0.000121253
0.000121211
0.000121104
0.000120925
0.000120659
0.00012028
0.000119753
0.000119028
0.000118041
0.000116706
0.000114909
0.000112499
0.000109281
0.000105005
9.93572e-05
9.19457e-05
8.23007e-05
6.98747e-05
5.40605e-05
3.42309e-05
9.81066e-06
-1.96112e-05
-5.41228e-05
-9.32928e-05
-0.000135963
-0.000180086
-0.000222703
-0.000260149
-0.000288578
-0.000304758
-0.000306945
-0.00029548
-0.00027277
-0.000242592
-0.000209013
-0.000175443
-0.000144192
-0.000116497
-9.28126e-05
-7.31096e-05
-5.70831e-05
-4.42868e-05
-3.42203e-05
-2.63896e-05
-2.03489e-05
-1.57209e-05
-1.22e-05
-9.54159e-06
-7.54671e-06
-6.05128e-06
-4.92296e-06
-4.06246e-06
-3.40274e-06
-2.90246e-06
-2.53509e-06
-2.27825e-06
-2.10738e-06
-1.9954e-06
-1.91622e-06
-1.84918e-06
-1.78163e-06
-1.70872e-06
-1.63085e-06
-1.55047e-06
-1.46941e-06
-1.38766e-06
-1.3036e-06
-1.21503e-06
-1.12042e-06
-1.01976e-06
-9.14696e-07
-8.08128e-07
-7.03272e-07
-6.02935e-07
-5.08718e-07
-4.20813e-07
-3.3788e-07
-2.5733e-07
-1.75234e-07
-9.29363e-08
0.000121339
0.0001213
0.000121199
0.000121029
0.000120775
0.000120414
0.000119907
0.000119208
0.000118252
0.000116953
0.000115198
0.000112837
0.000109675
0.00010546
9.98776e-05
9.25335e-05
8.29539e-05
7.05855e-05
5.4813e-05
3.49986e-05
1.05541e-05
-1.89459e-05
-5.36035e-05
-9.29974e-05
-0.000135971
-0.000180466
-0.000223489
-0.000261328
-0.000290072
-0.000306428
-0.000308612
-0.000296967
-0.000273948
-0.0002434
-0.000209459
-0.000175584
-0.000144101
-0.000116246
-9.24639e-05
-7.27102e-05
-5.66689e-05
-4.38831e-05
-3.38432e-05
-2.60479e-05
-2.00461e-05
-1.5457e-05
-1.19737e-05
-9.35062e-06
-7.38832e-06
-5.92199e-06
-4.81866e-06
-3.97882e-06
-3.3358e-06
-2.84905e-06
-2.49287e-06
-2.24544e-06
-2.08237e-06
-1.97645e-06
-1.90137e-06
-1.83643e-06
-1.76921e-06
-1.6953e-06
-1.61565e-06
-1.53318e-06
-1.45008e-06
-1.36651e-06
-1.28085e-06
-1.19085e-06
-1.09492e-06
-9.93084e-07
-8.87039e-07
-7.79827e-07
-6.74819e-07
-5.74946e-07
-4.81878e-07
-3.95809e-07
-3.1535e-07
-2.37868e-07
-1.59615e-07
-8.26408e-08
0.000121367
0.000121328
0.000121228
0.000121059
0.000120807
0.000120447
0.000119943
0.000119247
0.000118294
0.000117
0.00011525
0.000112894
0.000109737
0.00010553
9.99544e-05
9.26185e-05
8.30479e-05
7.06892e-05
5.4927e-05
3.51233e-05
1.06895e-05
-1.88003e-05
-5.34486e-05
-9.28351e-05
-0.000135804
-0.000180298
-0.000223325
-0.000261174
-0.000289932
-0.000306307
-0.000308514
-0.000296894
-0.000273899
-0.000243375
-0.000209455
-0.000175597
-0.000144126
-0.00011628
-9.25018e-05
-7.27498e-05
-5.67085e-05
-4.39216e-05
-3.38801e-05
-2.60828e-05
-2.00787e-05
-1.54874e-05
-1.20019e-05
-9.37711e-06
-7.41373e-06
-5.94683e-06
-4.84313e-06
-4.00285e-06
-3.3591e-06
-2.87133e-06
-2.51395e-06
-2.26522e-06
-2.10079e-06
-1.99335e-06
-1.91649e-06
-1.84943e-06
-1.77975e-06
-1.70312e-06
-1.62066e-06
-1.53545e-06
-1.44982e-06
-1.36402e-06
-1.27647e-06
-1.18491e-06
-1.08777e-06
-9.85048e-07
-8.78496e-07
-7.71202e-07
-6.66594e-07
-5.67644e-07
-4.76036e-07
-3.91938e-07
-3.13894e-07
-2.39157e-07
-1.63647e-07
-8.84915e-08
0.000121337
0.000121296
0.000121191
0.000121015
0.000120754
0.000120381
0.000119861
0.000119145
0.000118168
0.000116846
0.000115062
0.000112668
0.000109468
0.000105213
9.95867e-05
9.21999e-05
8.25816e-05
7.01845e-05
5.44008e-05
3.46029e-05
1.02144e-05
-1.9177e-05
-5.36613e-05
-9.28094e-05
-0.000135466
-0.000179587
-0.000222215
-0.000259689
-0.000288161
-0.000304399
-0.000306654
-0.000295261
-0.000272625
-0.000242516
-0.000208998
-0.000175479
-0.000144264
-0.000116594
-9.29239e-05
-7.32263e-05
-5.71997e-05
-4.44002e-05
-3.43287e-05
-2.6492e-05
-2.04444e-05
-1.58091e-05
-1.22813e-05
-9.61735e-06
-7.61863e-06
-6.12074e-06
-4.99051e-06
-4.12775e-06
-3.46488e-06
-2.96054e-06
-2.58847e-06
-2.32656e-06
-2.1503e-06
-2.03243e-06
-1.94651e-06
-1.87167e-06
-1.79526e-06
-1.71272e-06
-1.62491e-06
-1.5348e-06
-1.44465e-06
-1.35473e-06
-1.26354e-06
-1.1689e-06
-1.06928e-06
-9.64721e-07
-8.56958e-07
-7.49055e-07
-6.44398e-07
-5.4591e-07
-4.55221e-07
-3.72442e-07
-2.96073e-07
-2.23356e-07
-1.5043e-07
-7.91052e-08
0.000121249
0.000121204
0.00012109
0.000120899
0.000120617
0.000120218
0.000119664
0.000118906
0.000117879
0.000116496
0.000114642
0.000112167
0.000108876
0.000104521
9.87884e-05
9.12938e-05
8.15741e-05
6.90932e-05
5.32591e-05
3.3464e-05
9.15622e-06
-2.005e-05
-5.42196e-05
-9.29065e-05
-0.000134955
-0.000178351
-0.000220198
-0.000256935
-0.000284839
-0.000300793
-0.000303119
-0.000292143
-0.000270177
-0.000240853
-0.000208096
-0.000175221
-0.000144498
-0.000117167
-9.37067e-05
-7.41168e-05
-5.81219e-05
-4.5301e-05
-3.51743e-05
-2.72637e-05
-2.11342e-05
-1.64159e-05
-1.28083e-05
-1.00699e-05
-8.00378e-06
-6.44654e-06
-5.26546e-06
-4.35997e-06
-3.66127e-06
-3.12644e-06
-2.72784e-06
-2.44249e-06
-2.24561e-06
-2.10997e-06
-2.00922e-06
-1.92235e-06
-1.83629e-06
-1.74588e-06
-1.65143e-06
-1.55543e-06
-1.45991e-06
-1.36511e-06
-1.26964e-06
-1.17145e-06
-1.06913e-06
-9.62747e-07
-8.53997e-07
-7.45821e-07
-6.4146e-07
-5.43689e-07
-4.54012e-07
-3.7244e-07
-2.974e-07
-2.26065e-07
-1.5436e-07
-8.35505e-08
0.000121106
0.000121056
0.000120928
0.000120714
0.000120401
0.000119962
0.000119357
0.000118537
0.000117434
0.000115962
0.000114003
0.000111407
0.000107981
0.000103477
9.75868e-05
8.99328e-05
8.00635e-05
6.74591e-05
5.15505e-05
3.17596e-05
7.56953e-06
-2.13671e-05
-5.50795e-05
-9.30982e-05
-0.000134269
-0.000176619
-0.000217343
-0.000253024
-0.000280113
-0.000295657
-0.000298075
-0.00028768
-0.000266658
-0.000238442
-0.000206765
-0.000174813
-0.000144796
-0.000117958
-9.48052e-05
-7.53766e-05
-5.94326e-05
-4.65852e-05
-3.63821e-05
-2.83669e-05
-2.21205e-05
-1.72832e-05
-1.35604e-05
-1.07142e-05
-8.54996e-06
-6.90596e-06
-5.65025e-06
-4.68181e-06
-3.9303e-06
-3.35063e-06
-2.91314e-06
-2.59358e-06
-2.36669e-06
-2.2053e-06
-2.08315e-06
-1.97904e-06
-1.87934e-06
-1.77802e-06
-1.6745e-06
-1.57057e-06
-1.46788e-06
-1.36661e-06
-1.26547e-06
-1.16264e-06
-1.05684e-06
-9.48177e-07
-8.38247e-07
-7.29783e-07
-6.2578e-07
-5.28762e-07
-4.40033e-07
-3.59469e-07
-2.8543e-07
-2.15102e-07
-1.44634e-07
-7.58968e-08
0.000120913
0.000120856
0.000120709
0.000120466
0.000120113
0.00011962
0.00011895
0.000118048
0.000116847
0.000115258
0.000113163
0.000110412
0.00010681
0.000102114
9.60219e-05
8.8164e-05
7.81042e-05
6.53444e-05
4.93446e-05
2.95642e-05
5.53059e-06
-2.30557e-05
-5.61805e-05
-9.33467e-05
-0.000133405
-0.000174435
-0.000213751
-0.000248112
-0.000274186
-0.000289219
-0.000291748
-0.000282067
-0.000262206
-0.000235363
-0.000205034
-0.00017424
-0.000145121
-0.000118914
-9.61624e-05
-7.69487e-05
-6.10789e-05
-4.82058e-05
-3.79118e-05
-2.97684e-05
-2.33765e-05
-1.839e-05
-1.45222e-05
-1.15399e-05
-9.25159e-06
-7.49758e-06
-6.14702e-06
-5.09851e-06
-4.2799e-06
-3.64346e-06
-3.15705e-06
-2.79476e-06
-2.53065e-06
-2.3375e-06
-2.18914e-06
-2.06409e-06
-1.948e-06
-1.83375e-06
-1.71965e-06
-1.6066e-06
-1.49575e-06
-1.38717e-06
-1.2797e-06
-1.17176e-06
-1.06225e-06
-9.51276e-07
-8.40278e-07
-7.31706e-07
-6.28211e-07
-5.31988e-07
-4.44078e-07
-3.64188e-07
-2.90594e-07
-2.20451e-07
-1.49785e-07
-8.01134e-08
0.000120675
0.000120609
0.00012044
0.000120161
0.000119759
0.000119203
0.000118453
0.000117453
0.000116134
0.000114405
0.000112148
0.00010921
0.000105399
0.000100476
9.41438e-05
8.60461e-05
7.57643e-05
6.28261e-05
4.67263e-05
2.69682e-05
3.13088e-06
-2.50306e-05
-5.74533e-05
-9.3611e-05
-0.000132364
-0.000171857
-0.000209543
-0.000242387
-0.000267298
-0.000281747
-0.000284399
-0.000275528
-0.00025699
-0.000231717
-0.000202941
-0.000173496
-0.000145431
-0.000119977
-9.77098e-05
-7.87627e-05
-6.29926e-05
-5.00994e-05
-3.97061e-05
-3.14168e-05
-2.48566e-05
-1.96957e-05
-1.56573e-05
-1.25143e-05
-1.00788e-05
-8.1938e-06
-6.72974e-06
-5.58494e-06
-4.68532e-06
-3.98029e-06
-3.43492e-06
-3.0213e-06
-2.71261e-06
-2.48146e-06
-2.30166e-06
-2.15138e-06
-2.01541e-06
-1.88545e-06
-1.75851e-06
-1.63452e-06
-1.51402e-06
-1.39692e-06
-1.28222e-06
-1.16855e-06
-1.05497e-06
-9.41576e-07
-8.29585e-07
-7.21092e-07
-6.18328e-07
-5.23094e-07
-4.36124e-07
-3.56935e-07
-2.83736e-07
-2.13726e-07
-1.43174e-07
-7.4123e-08
0.000120398
0.000120322
0.000120127
0.000119808
0.00011935
0.000118722
0.00011788
0.000116769
0.000115315
0.000113427
0.000110985
0.000107836
0.00010379
9.86105e-05
9.20107e-05
8.36469e-05
7.31215e-05
5.99914e-05
4.37907e-05
2.40716e-05
4.69838e-07
-2.72008e-05
-5.88262e-05
-9.38524e-05
-0.000131154
-0.000168954
-0.000204858
-0.000236052
-0.000259707
-0.000273527
-0.000276311
-0.000268309
-0.000251194
-0.000227619
-0.000200537
-0.000172578
-0.00014569
-0.000121088
-9.93785e-05
-8.07465e-05
-6.5104e-05
-5.22021e-05
-4.17085e-05
-3.32638e-05
-2.65206e-05
-2.11677e-05
-1.69405e-05
-1.36188e-05
-1.10191e-05
-8.98758e-06
-7.39614e-06
-6.14292e-06
-5.15196e-06
-4.36974e-06
-3.7583e-06
-3.28754e-06
-2.9295e-06
-2.65641e-06
-2.44192e-06
-2.26378e-06
-2.10585e-06
-1.95854e-06
-1.81752e-06
-1.68165e-06
-1.55083e-06
-1.42476e-06
-1.30253e-06
-1.18297e-06
-1.06526e-06
-9.49426e-07
-8.3644e-07
-7.27983e-07
-6.25828e-07
-5.31347e-07
-4.44952e-07
-3.65966e-07
-2.92535e-07
-2.2187e-07
-1.50175e-07
-7.91317e-08
0.00012009
0.000120002
0.00011978
0.000119416
0.000118896
0.000118188
0.000117247
0.000116013
0.000114413
0.000112351
0.000109707
0.000106328
0.000102027
9.65726e-05
8.96859e-05
8.10396e-05
7.02588e-05
5.69326e-05
4.06374e-05
2.09775e-05
-2.35196e-06
-2.94766e-05
-6.0232e-05
-9.40392e-05
-0.000129794
-0.000165805
-0.00019984
-0.000229318
-0.000251674
-0.000264846
-0.000267765
-0.000260655
-0.000245006
-0.000223193
-0.000197884
-0.000171497
-0.00014587
-0.000122193
-0.0001011
-8.28259e-05
-6.73385e-05
-5.44424e-05
-4.38529e-05
-3.52495e-05
-2.83147e-05
-2.27584e-05
-1.83291e-05
-1.48151e-05
-1.20382e-05
-9.84757e-06
-8.11709e-06
-6.74488e-06
-5.65323e-06
-4.78575e-06
-4.10145e-06
-3.56785e-06
-3.15563e-06
-2.83645e-06
-2.58366e-06
-2.3745e-06
-2.19188e-06
-2.02493e-06
-1.86801e-06
-1.71884e-06
-1.57666e-06
-1.44089e-06
-1.31065e-06
-1.1849e-06
-1.06289e-06
-9.44531e-07
-8.305e-07
-7.22045e-07
-6.20462e-07
-5.2669e-07
-4.40821e-07
-3.62e-07
-2.88333e-07
-2.17124e-07
-1.44864e-07
-7.37921e-08
0.000119758
0.000119659
0.000119406
0.000118995
0.00011841
0.000117617
0.000116569
0.000115206
0.00011345
0.000111204
0.000108348
0.000104729
0.000100161
9.44192e-05
8.72359e-05
7.83001e-05
6.72614e-05
5.3743e-05
3.73654e-05
1.77864e-05
-5.23855e-06
-3.17757e-05
-6.16122e-05
-9.41493e-05
-0.000128309
-0.000162494
-0.000194638
-0.000222391
-0.000243447
-0.000255974
-0.000259026
-0.000252802
-0.000238614
-0.000218566
-0.00019505
-0.000170271
-0.000145952
-0.000123247
-0.000102814
-8.49328e-05
-6.96264e-05
-5.67536e-05
-4.6078e-05
-3.73195e-05
-3.01921e-05
-2.44281e-05
-1.9791e-05
-1.6078e-05
-1.31168e-05
-1.07604e-05
-8.88436e-06
-7.38715e-06
-6.18954e-06
-5.23241e-06
-4.47175e-06
-3.87263e-06
-3.40415e-06
-3.03721e-06
-2.7447e-06
-2.50329e-06
-2.29496e-06
-2.10761e-06
-1.9343e-06