/*--------------------------------*- C++ -*----------------------------------*\
| =========                 |                                                 |
| \\      /  F ield         | OpenFOAM: The Open Source CFD Toolbox           |
|  \\    /   O peration     | Version:  2512                                  |
|   \\  /    A nd           | Website:  www.openfoam.com                      |
|    \\/     M anipulation  |                                                 |
\*---------------------------------------------------------------------------*/
FoamFile
{
    version     2.0;
    format      ascii;
    arch        "LSB;label=32;scalar=64";
    class       volScalarField;
    location    "140";
    object      p;
}
// * * * * * * * * * * * * * * * * * * * * * * * * * * * * * * * * * * * * * //

dimensions      [0 2 -2 0 0 0 0];

internalField   nonuniform List<scalar> 
229904
(
0.000117172
0.000116971
0.000116458
0.000115636
0.000114493
0.000112983
0.000111044
0.0001086
0.000105561
0.00010182
9.72545e-05
9.17245e-05
8.50763e-05
7.71452e-05
6.77621e-05
5.6762e-05
4.39983e-05
2.93591e-05
1.27901e-05
-5.68034e-06
-2.5914e-05
-4.76357e-05
-7.04133e-05
-9.36476e-05
-0.000116582
-0.000138335
-0.00015796
-0.000174529
-0.000187232
-0.000195478
-0.000198974
-0.000197766
-0.00019223
-0.000183011
-0.000170931
-0.000156881
-0.000141722
-0.000126215
-0.000110976
-9.64714e-05
-8.30156e-05
-7.07962e-05
-5.98963e-05
-5.03195e-05
-4.20133e-05
-3.48885e-05
-2.88353e-05
-2.3735e-05
-1.94685e-05
-1.59218e-05
-1.29896e-05
-1.05771e-05
-8.6004e-06
-6.98687e-06
-5.67408e-06
-4.60906e-06
-3.74728e-06
-3.05155e-06
-2.49106e-06
-2.04031e-06
-1.67836e-06
-1.38803e-06
-1.1553e-06
-9.68719e-07
-8.19018e-07
-6.98623e-07
-6.01357e-07
-5.2213e-07
-4.56755e-07
-4.01767e-07
-3.54333e-07
-3.12157e-07
-2.73424e-07
-2.36738e-07
-2.01083e-07
-1.65779e-07
-1.3044e-07
-9.49824e-08
-5.93898e-08
-2.65475e-08
0.000117232
0.000117032
0.000116525
0.00011571
0.000114578
0.000113082
0.00011116
0.000108736
0.00010572
0.000102007
9.74728e-05
9.19772e-05
8.53657e-05
7.74723e-05
6.81255e-05
5.71577e-05
4.44179e-05
2.97897e-05
1.32131e-05
-5.28974e-06
-2.55861e-05
-4.74053e-05
-7.03165e-05
-9.37185e-05
-0.000116847
-0.000138807
-0.000158633
-0.000175376
-0.000188206
-0.000196514
-0.000199999
-0.00019871
-0.000193035
-0.000183639
-0.000171368
-0.000157132
-0.000141808
-0.000126164
-0.000110823
-9.62474e-05
-8.27485e-05
-7.05091e-05
-5.96069e-05
-5.00405e-05
-4.17529e-05
-3.46517e-05
-2.86243e-05
-2.35501e-05
-1.93087e-05
-1.57853e-05
-1.28741e-05
-1.04801e-05
-8.51963e-06
-6.92003e-06
-5.61906e-06
-4.56399e-06
-3.71051e-06
-3.02167e-06
-2.46685e-06
-2.02076e-06
-1.66262e-06
-1.37537e-06
-1.14512e-06
-9.60541e-07
-8.12438e-07
-6.9332e-07
-5.97069e-07
-5.18649e-07
-4.5391e-07
-3.99424e-07
-3.52386e-07
-3.10532e-07
-2.72071e-07
-2.35631e-07
-2.00217e-07
-1.65159e-07
-1.30078e-07
-9.48838e-08
-5.95381e-08
-2.67872e-08
0.000117351
0.000117154
0.000116656
0.000115857
0.000114745
0.000113276
0.000111387
0.000109003
0.000106035
0.000102377
9.79045e-05
9.24771e-05
8.59385e-05
7.81199e-05
6.88456e-05
5.79421e-05
4.52507e-05
3.06454e-05
1.40546e-05
-4.51119e-06
-2.49308e-05
-4.69422e-05
-7.01183e-05
-9.3853e-05
-0.000117367
-0.00013974
-0.000159969
-0.000177061
-0.000190143
-0.000198575
-0.000202039
-0.000200587
-0.000194634
-0.000184886
-0.000172233
-0.000157627
-0.000141974
-0.000126061
-0.000110517
-9.58004e-05
-8.22169e-05
-6.99386e-05
-5.90323e-05
-4.94869e-05
-4.12367e-05
-3.41825e-05
-2.82063e-05
-2.31839e-05
-1.89922e-05
-1.55148e-05
-1.26453e-05
-1.02882e-05
-8.35978e-06
-6.78772e-06
-5.51014e-06
-4.47474e-06
-3.63767e-06
-2.96244e-06
-2.41883e-06
-1.98192e-06
-1.63126e-06
-1.35006e-06
-1.12468e-06
-9.43989e-07
-7.98984e-07
-6.82321e-07
-5.88006e-07
-5.11103e-07
-4.4754e-07
-3.93956e-07
-3.47609e-07
-3.06291e-07
-2.68265e-07
-2.32209e-07
-1.97165e-07
-1.62493e-07
-1.27826e-07
-9.30774e-08
-5.82053e-08
-2.59282e-08
0.000117524
0.000117334
0.00011685
0.000116073
0.000114992
0.000113562
0.000111722
0.000109398
0.0001065
0.000102922
9.85411e-05
9.32147e-05
8.67843e-05
7.90769e-05
6.99108e-05
5.91037e-05
4.64857e-05
3.19162e-05
1.53071e-05
-3.34942e-06
-2.39492e-05
-4.62437e-05
-6.98116e-05
-9.40407e-05
-0.00011813
-0.000141119
-0.000161951
-0.000179567
-0.00019303
-0.000201648
-0.000205079
-0.000203382
-0.000197011
-0.000186734
-0.000173509
-0.00015835
-0.000142208
-0.000125897
-0.000110052
-9.51299e-05
-8.14234e-05
-6.90895e-05
-5.81792e-05
-4.86663e-05
-4.04727e-05
-3.34888e-05
-2.7589e-05
-2.26435e-05
-1.85255e-05
-1.51164e-05
-1.23084e-05
-1.00057e-05
-8.12465e-06
-6.59322e-06
-5.35014e-06
-4.34374e-06
-3.53087e-06
-2.87571e-06
-2.34866e-06
-1.92533e-06
-1.58574e-06
-1.31353e-06
-1.09539e-06
-9.20526e-07
-7.80185e-07
-6.67248e-07
-5.75901e-07
-5.01347e-07
-4.3963e-07
-3.87486e-07
-3.4226e-07
-3.01826e-07
-2.64528e-07
-2.29114e-07
-1.94681e-07
-1.60629e-07
-1.2661e-07
-9.25293e-08
-5.82882e-08
-2.64287e-08
0.00011775
0.000117566
0.000117101
0.000116353
0.000115312
0.000113933
0.000112157
0.000109909
0.000107102
0.00010363
9.9369e-05
9.41748e-05
8.78862e-05
8.03251e-05
7.1302e-05
6.06233e-05
4.81042e-05
3.35854e-05
1.69567e-05
-1.81369e-06
-2.26448e-05
-4.53067e-05
-6.93864e-05
-9.42648e-05
-0.000119113
-0.000142919
-0.000164552
-0.000182866
-0.000196838
-0.000205705
-0.00020909
-0.000207065
-0.000200135
-0.000189153
-0.000175168
-0.000159277
-0.000142493
-0.00012566
-0.000109425
-9.42376e-05
-8.03743e-05
-6.79717e-05
-5.70595e-05
-4.75919e-05
-3.94743e-05
-3.25837e-05
-2.67846e-05
-2.19401e-05
-1.79186e-05
-1.45986e-05
-1.18709e-05
-9.639e-06
-7.8195e-06
-6.34084e-06
-5.1425e-06
-4.17369e-06
-3.39215e-06
-2.76293e-06
-2.25724e-06
-1.8514e-06
-1.52603e-06
-1.26532e-06
-1.05643e-06
-8.88961e-07
-7.54507e-07
-6.46242e-07
-5.58584e-07
-4.8692e-07
-4.27442e-07
-3.77011e-07
-3.33091e-07
-2.93667e-07
-2.57188e-07
-2.22494e-07
-1.88758e-07
-1.55429e-07
-1.22187e-07
-8.89402e-08
-5.55965e-08
-2.47293e-08
0.000118021
0.000117847
0.000117403
0.000116691
0.000115698
0.000114381
0.000112681
0.000110527
0.000107831
0.000104487
0.000100371
9.53378e-05
8.92226e-05
8.1841e-05
7.29943e-05
6.24755e-05
5.00816e-05
3.56305e-05
1.89847e-05
8.27846e-08
-2.10236e-05
-4.41284e-05
-6.88308e-05
-9.45045e-05
-0.000120287
-0.000145104
-0.000167734
-0.00018692
-0.000201527
-0.000210705
-0.000214033
-0.000211595
-0.000203966
-0.000192103
-0.000177175
-0.000160381
-0.000142807
-0.000125339
-0.000108632
-9.31268e-05
-7.90787e-05
-6.65983e-05
-5.56889e-05
-4.62807e-05
-3.82586e-05
-3.14838e-05
-2.58087e-05
-2.10879e-05
-1.71842e-05
-1.39727e-05
-1.13425e-05
-9.19658e-06
-7.45165e-06
-6.03689e-06
-4.89269e-06
-3.96936e-06
-3.22574e-06
-2.62794e-06
-2.14814e-06
-1.76353e-06
-1.45546e-06
-1.20878e-06
-1.0112e-06
-8.52818e-07
-7.25651e-07
-6.23218e-07
-5.40208e-07
-4.72227e-07
-4.15637e-07
-3.6745e-07
-3.25267e-07
-2.87206e-07
-2.51841e-07
-2.18122e-07
-1.85306e-07
-1.52896e-07
-1.20597e-07
-8.83028e-08
-5.58375e-08
-2.55423e-08
0.000118333
0.000118168
0.00011775
0.000117079
0.00011614
0.000114895
0.000113284
0.000111237
0.000108668
0.000105472
0.000101525
9.66792e-05
9.07661e-05
8.35949e-05
7.49561e-05
6.46276e-05
5.23854e-05
3.80209e-05
2.13648e-05
2.32016e-06
-1.90967e-05
-4.27092e-05
-6.81331e-05
-9.47358e-05
-0.000121618
-0.000147632
-0.000171446
-0.000191674
-0.000207043
-0.000216595
-0.000219853
-0.000216918
-0.000208449
-0.000195533
-0.000179484
-0.000161625
-0.000143127
-0.00012492
-0.00010767
-9.1804e-05
-7.75502e-05
-6.49878e-05
-5.40888e-05
-4.47552e-05
-3.68483e-05
-3.02107e-05
-2.46813e-05
-2.01049e-05
-1.63382e-05
-1.32525e-05
-1.0735e-05
-8.68824e-06
-7.02917e-06
-5.68782e-06
-4.60573e-06
-3.73448e-06
-3.0342e-06
-2.47224e-06
-2.02192e-06
-1.66141e-06
-1.37293e-06
-1.14207e-06
-9.57193e-07
-8.08979e-07
-6.89929e-07
-5.93962e-07
-5.16085e-07
-4.52148e-07
-3.9871e-07
-3.52957e-07
-3.12648e-07
-2.76057e-07
-2.41904e-07
-2.09263e-07
-1.7749e-07
-1.46148e-07
-1.14967e-07
-8.38388e-08
-5.2583e-08
-2.35579e-08
0.000118677
0.000118524
0.000118134
0.000117507
0.00011663
0.000115463
0.000113951
0.000112023
0.000109596
0.000106565
0.000102806
9.81702e-05
9.24845e-05
8.55511e-05
7.7149e-05
6.70393e-05
5.49752e-05
4.0718e-05
2.40625e-05
4.87115e-06
-1.68811e-05
-4.10536e-05
-6.7283e-05
-9.49331e-05
-0.000123065
-0.000150448
-0.000175627
-0.000197059
-0.000213313
-0.0002233
-0.000226476
-0.000222961
-0.000213515
-0.000199382
-0.000182043
-0.000162968
-0.000143426
-0.000124392
-0.000106542
-9.0281e-05
-7.5808e-05
-6.31644e-05
-5.22861e-05
-4.30432e-05
-3.52705e-05
-2.87902e-05
-2.34261e-05
-1.90127e-05
-1.53998e-05
-1.24548e-05
-1.00631e-05
-8.12671e-06
-6.56313e-06
-5.30335e-06
-4.29023e-06
-3.47678e-06
-2.82463e-06
-2.30251e-06
-1.88499e-06
-1.55134e-06
-1.28473e-06
-1.07157e-06
-9.00963e-07
-7.6421e-07
-6.54358e-07
-5.65763e-07
-4.93773e-07
-4.34502e-07
-3.84718e-07
-3.41788e-07
-3.03648e-07
-2.68739e-07
-2.3594e-07
-2.0446e-07
-1.73758e-07
-1.43461e-07
-1.13321e-07
-8.32042e-08
-5.28453e-08
-2.43818e-08
0.000119045
0.000118904
0.000118545
0.000117966
0.000117154
0.000116072
0.000114666
0.000112867
0.000110593
0.000107741
0.000104186
9.97779e-05
9.43405e-05
8.76682e-05
7.9528e-05
6.96633e-05
5.78023e-05
4.36742e-05
2.70341e-05
7.69901e-06
-1.4403e-05
-3.9173e-05
-6.62746e-05
-9.50709e-05
-0.000124583
-0.00015349
-0.000180198
-0.000202988
-0.000220244
-0.000230724
-0.000233806
-0.000229631
-0.000219078
-0.000203572
-0.000184791
-0.000164368
-0.000143679
-0.000123747
-0.000105252
-8.85754e-05
-7.38777e-05
-6.11587e-05
-5.03139e-05
-4.1178e-05
-3.35574e-05
-2.72522e-05
-2.20703e-05
-1.78351e-05
-1.43895e-05
-1.15971e-05
-9.34122e-06
-7.52378e-06
-6.06279e-06
-4.89045e-06
-3.95108e-06
-3.19933e-06
-2.59843e-06
-2.11864e-06
-1.73589e-06
-1.43064e-06
-1.18709e-06
-9.92537e-07
-8.36874e-07
-7.12101e-07
-6.1185e-07
-5.30953e-07
-4.65121e-07
-4.10745e-07
-3.6482e-07
-3.24905e-07
-2.89122e-07
-2.56094e-07
-2.24869e-07
-1.948e-07
-1.65452e-07
-1.36514e-07
-1.07755e-07
-7.90306e-08
-5.00475e-08
-2.28917e-08
0.000119429
0.000119301
0.000118973
0.000118444
0.000117702
0.000116708
0.000115413
0.000113749
0.000111635
0.000108971
0.000105632
0.000101466
9.62927e-05
8.98997e-05
8.2042e-05
7.24443e-05
6.08093e-05
4.6832e-05
3.0225e-05
1.07562e-05
-1.16985e-05
-3.70878e-05
-6.51079e-05
-9.51261e-05
-0.000126124
-0.000156686
-0.000185067
-0.000209351
-0.000227715
-0.000238742
-0.00024172
-0.000236813
-0.000225033
-0.000208017
-0.000187661
-0.00016578
-0.000143863
-0.000122982
-0.000103815
-8.67129e-05
-7.17932e-05
-5.9009e-05
-4.8212e-05
-3.91992e-05
-3.17466e-05
-2.56316e-05
-2.06454e-05
-1.66003e-05
-1.33324e-05
-1.07013e-05
-8.58879e-06
-6.89653e-06
-5.54338e-06
-4.46284e-06
-3.60086e-06
-2.91382e-06
-2.36669e-06
-1.93135e-06
-1.58515e-06
-1.30978e-06
-1.0905e-06
-9.15556e-07
-7.75662e-07
-6.63544e-07
-5.73445e-07
-5.00684e-07
-4.41345e-07
-3.92098e-07
-3.50162e-07
-3.13299e-07
-2.79824e-07
-2.4855e-07
-2.18702e-07
-1.89782e-07
-1.61461e-07
-1.33488e-07
-1.05652e-07
-7.77885e-08
-4.95546e-08
-2.29541e-08
0.00011982
0.000119704
0.000119409
0.000118931
0.000118259
0.000117356
0.000116173
0.000114648
0.000112699
0.000110228
0.000107111
0.000103194
9.82956e-05
9.21944e-05
8.46337e-05
7.53203e-05
6.39305e-05
5.01244e-05
3.35701e-05
1.39834e-05
-8.81582e-06
-3.48295e-05
-6.37922e-05
-9.50805e-05
-0.000127639
-0.000159956
-0.000190125
-0.000216018
-0.000235581
-0.000247203
-0.000250068
-0.000244365
-0.000231259
-0.000212616
-0.00019058
-0.000167159
-0.000143961
-0.000122102
-0.000102252
-8.47279e-05
-6.95963e-05
-5.67606e-05
-4.60262e-05
-3.71507e-05
-2.98791e-05
-2.39651e-05
-1.91837e-05
-1.53363e-05
-1.22519e-05
-9.78664e-06
-7.82094e-06
-6.25653e-06
-5.01318e-06
-4.02588e-06
-3.2423e-06
-2.62067e-06
-2.12778e-06
-1.73718e-06
-1.42769e-06
-1.18229e-06
-9.8733e-07
-8.31999e-07
-7.07882e-07
-6.08453e-07
-5.28583e-07
-4.64084e-07
-4.11411e-07
-3.67513e-07
-3.29832e-07
-2.96334e-07
-2.65533e-07
-2.36439e-07
-2.08453e-07
-1.81221e-07
-1.54513e-07
-1.28129e-07
-1.01864e-07
-7.55227e-08
-4.86875e-08
-2.31362e-08
0.000120208
0.000120105
0.000119842
0.000119415
0.000118812
0.000118
0.00011693
0.000115542
0.000113758
0.000111481
0.000108586
0.000104922
0.000100301
9.44972e-05
8.72416e-05
7.82232e-05
6.70926e-05
5.34748e-05
3.69929e-05
1.73089e-05
-5.81649e-06
-3.24424e-05
-6.23475e-05
-9.49231e-05
-0.000129081
-0.000163215
-0.00019525
-0.000222835
-0.000243666
-0.000255921
-0.000258667
-0.00025212
-0.000237611
-0.00021726
-0.000193473
-0.000168465
-0.000143962
-0.000121122
-0.000100598
-8.26649e-05
-6.7338e-05
-5.44672e-05
-4.38098e-05
-3.50833e-05
-2.80016e-05
-2.22954e-05
-1.77236e-05
-1.40768e-05
-1.1178e-05
-8.87974e-06
-7.0615e-06
-5.62522e-06
-4.49176e-06
-3.59764e-06
-2.89235e-06
-2.33599e-06
-1.89721e-06
-1.55125e-06
-1.27839e-06
-1.06286e-06
-8.92089e-07
-7.56235e-07
-6.47734e-07
-5.60811e-07
-4.90958e-07
-4.34467e-07
-3.8815e-07
-3.49222e-07
-3.15345e-07
-2.84693e-07
-2.55987e-07
-2.28441e-07
-2.01639e-07
-1.75372e-07
-1.49504e-07
-1.23883e-07
-9.83095e-08
-7.25777e-08
-4.6297e-08
-2.14202e-08
0.000120585
0.000120494
0.000120261
0.000119884
0.000119349
0.000118624
0.000117664
0.00011641
0.000114787
0.000112699
0.000110023
0.000106607
0.00010226
9.67508e-05
8.98001e-05
8.10799e-05
7.02159e-05
5.67986e-05
4.04071e-05
2.06491e-05
-2.7751e-06
-2.99846e-05
-6.08065e-05
-9.46525e-05
-0.000130408
-0.000166373
-0.000200306
-0.000229625
-0.000251766
-0.000264678
-0.000267304
-0.000259885
-0.00024393
-0.000221829
-0.000196264
-0.000169662
-0.000143867
-0.000120066
-9.88937e-05
-8.05775e-05
-6.5077e-05
-5.21879e-05
-4.16192e-05
-3.30491e-05
-2.61608e-05
-2.06631e-05
-1.62993e-05
-1.28505e-05
-1.01335e-05
-7.99834e-06
-6.32353e-06
-5.01149e-06
-3.98428e-06
-3.18004e-06
-2.55009e-06
-2.05644e-06
-1.66958e-06
-1.36641e-06
-1.12866e-06
-9.41779e-07
-7.94241e-07
-6.7714e-07
-5.83759e-07
-5.09061e-07
-4.49136e-07
-4.00735e-07
-3.60995e-07
-3.27376e-07
-2.97746e-07
-2.70477e-07
-2.445e-07
-2.19227e-07
-1.94419e-07
-1.69998e-07
-1.45906e-07
-1.22014e-07
-9.81064e-08
-7.39203e-08
-4.88998e-08
-2.44763e-08
0.00012094
0.000120861
0.000120658
0.000120327
0.000119856
0.000119214
0.000118357
0.000117231
0.00011576
0.000113851
0.000111384
0.000108204
0.000104121
9.88965e-05
9.22422e-05
8.38145e-05
7.32161e-05
6.00052e-05
4.37181e-05
2.39101e-05
2.21613e-07
-2.75274e-05
-5.92151e-05
-9.42786e-05
-0.000131582
-0.00016934
-0.00020515
-0.000236196
-0.000259651
-0.000273226
-0.000275734
-0.000267443
-0.000250041
-0.000226199
-0.00019888
-0.000170724
-0.000143683
-0.000118971
-9.71938e-05
-7.85291e-05
-6.28803e-05
-4.99891e-05
-3.95179e-05
-3.11067e-05
-2.44099e-05
-1.91157e-05
-1.49534e-05
-1.16948e-05
-9.15201e-06
-7.17243e-06
-5.63411e-06
-4.44005e-06
-3.51356e-06
-2.79437e-06
-2.23559e-06
-1.8011e-06
-1.46316e-06
-1.20025e-06
-9.95468e-07
-8.35366e-07
-7.09421e-07
-6.09611e-07
-5.30031e-07
-4.66346e-07
-4.15217e-07
-3.73814e-07
-3.39574e-07
-3.1018e-07
-2.83692e-07
-2.58687e-07
-2.34304e-07
-2.10163e-07
-1.86204e-07
-1.62476e-07
-1.38991e-07
-1.15641e-07
-9.21958e-08
-6.83864e-08
-4.37746e-08
-2.0284e-08
0.000121267
0.000121198
0.000121022
0.000120734
0.000120321
0.000119755
0.000118993
0.000117983
0.000116653
0.00011491
0.000112634
0.000109674
0.000105836
0.000100877
9.45009e-05
8.63506e-05
7.60076e-05
6.30006e-05
4.68263e-05
2.69908e-05
3.07734e-06
-2.51536e-05
-5.76318e-05
-9.38229e-05
-0.000132577
-0.000172033
-0.000209633
-0.000242341
-0.000267069
-0.000281293
-0.000283693
-0.000274558
-0.000255759
-0.000230243
-0.000201254
-0.000171632
-0.000143432
-0.000117883
-9.55598e-05
-7.65885e-05
-6.08177e-05
-4.79379e-05
-3.75672e-05
-2.93104e-05
-2.27957e-05
-1.76925e-05
-1.37177e-05
-1.06353e-05
-8.25281e-06
-6.41597e-06
-5.00248e-06
-3.91607e-06
-3.08127e-06
-2.43935e-06
-1.94516e-06
-1.56432e-06
-1.27077e-06
-1.04447e-06
-8.69726e-07
-7.34131e-07
-6.28048e-07
-5.44271e-07
-4.77644e-07
-4.24482e-07
-3.81964e-07
-3.47633e-07
-3.19179e-07
-2.94469e-07
-2.71735e-07
-2.49731e-07
-2.27795e-07
-2.0574e-07
-1.83666e-07
-1.61729e-07
-1.39992e-07
-1.18337e-07
-9.64914e-08
-7.40945e-08
-5.04397e-08
-2.66051e-08
0.000121557
0.000121497
0.000121345
0.000121094
0.000120733
0.000120233
0.000119556
0.000118649
0.000117442
0.000115846
0.000113742
0.000110977
0.000107357
0.000102636
9.65118e-05
8.86139e-05
7.85062e-05
6.56914e-05
4.96311e-05
2.97871e-05
5.6904e-06
-2.29537e-05
-5.61248e-05
-9.33182e-05
-0.000133376
-0.000174371
-0.00021361
-0.000247851
-0.000273761
-0.000288594
-0.000290899
-0.000280984
-0.000260895
-0.000233839
-0.000203325
-0.000172379
-0.000143144
-0.000116857
-9.40605e-05
-7.48303e-05
-5.89641e-05
-4.61054e-05
-3.58328e-05
-2.77198e-05
-2.13713e-05
-1.64407e-05
-1.26341e-05
-9.70879e-06
-7.46881e-06
-5.75842e-06
-4.45526e-06
-3.46376e-06
-2.70962e-06
-2.13551e-06
-1.69783e-06
-1.3638e-06
-1.10886e-06
-9.1428e-07
-7.65427e-07
-6.50777e-07
-5.61464e-07
-4.91007e-07
-4.34922e-07
-3.90113e-07
-3.54224e-07
-3.25128e-07
-3.00735e-07
-2.79072e-07
-2.5852e-07
-2.38004e-07
-2.17048e-07
-1.9565e-07
-1.74063e-07
-1.52543e-07
-1.31189e-07
-1.09878e-07
-8.83052e-08
-6.61071e-08
-4.27735e-08
-2.01512e-08
0.000121803
0.000121752
0.000121619
0.0001214
0.000121082
0.000120638
0.000120032
0.000119211
0.000118109
0.000116637
0.000114677
0.000112077
0.000108642
0.000104125
9.82159e-05
9.05356e-05
8.0633e-05
6.7989e-05
5.20358e-05
3.21972e-05
7.95948e-06
-2.10208e-05
-5.47676e-05
-9.2805e-05
-0.000133972
-0.000176288
-0.000216945
-0.000252521
-0.000279469
-0.000294843
-0.000297072
-0.00028648
-0.000265265
-0.000236872
-0.000205042
-0.000172965
-0.000142854
-0.000115951
-9.27643e-05
-7.33258e-05
-5.73882e-05
-4.4555e-05
-3.43708e-05
-2.63828e-05
-2.01769e-05
-1.5393e-05
-1.17283e-05
-8.93513e-06
-6.81452e-06
-5.20977e-06
-3.99861e-06
-3.08615e-06
-2.39908e-06
-1.88132e-06
-1.4906e-06
-1.19553e-06
-9.72823e-07
-8.04841e-07
-6.77837e-07
-5.80997e-07
-5.06086e-07
-4.47218e-07
-4.00476e-07
-3.63268e-07
-3.33629e-07
-3.09701e-07
-2.89567e-07
-2.71373e-07
-2.53613e-07
-2.35345e-07
-2.16249e-07
-1.96471e-07
-1.76387e-07
-1.56325e-07
-1.36402e-07
-1.16468e-07
-9.61609e-08
-7.50148e-08
-5.21954e-08
-2.8543e-08
0.000122
0.000121955
0.000121837
0.000121643
0.000121359
0.00012096
0.000120408
0.000119656
0.000118636
0.00011726
0.000115414
0.000112944
0.000109656
0.0001053
9.95618e-05
9.20555e-05
8.23184e-05
6.98146e-05
5.39533e-05
3.41284e-05
9.7904e-06
-1.94432e-05
-5.3633e-05
-9.2328e-05
-0.000134367
-0.00017773
-0.000219518
-0.000256168
-0.000283957
-0.000299775
-0.00030195
-0.000290819
-0.000268703
-0.000239242
-0.000206367
-0.000173398
-0.000142602
-0.000115223
-9.17381e-05
-7.21437e-05
-5.61567e-05
-4.33484e-05
-3.32369e-05
-2.53492e-05
-1.92561e-05
-1.45875e-05
-1.10339e-05
-8.34359e-06
-6.31568e-06
-4.79275e-06
-3.65265e-06
-2.80107e-06
-2.16551e-06
-1.69085e-06
-1.33587e-06
-1.07029e-06
-8.71835e-07
-7.23718e-07
-6.12861e-07
-5.28985e-07
-4.64329e-07
-4.13473e-07
-3.72955e-07
-3.40588e-07
-3.14731e-07
-2.93747e-07
-2.75855e-07
-2.59293e-07
-2.42646e-07
-2.25078e-07
-2.06391e-07
-1.86855e-07
-1.66942e-07
-1.47035e-07
-1.27263e-07
-1.07455e-07
-8.72169e-08
-6.60919e-08
-4.3482e-08
-2.1124e-08
0.000122143
0.000122102
0.000121996
0.000121819
0.000121558
0.00012119
0.000120677
0.000119972
0.000119009
0.000117701
0.000115934
0.000113555
0.00011037
0.000106126
0.000100508
9.3125e-05
8.35059e-05
7.11037e-05
5.53116e-05
3.55031e-05
1.11035e-05
-1.82971e-05
-5.27857e-05
-9.19296e-05
-0.00013457
-0.000178659
-0.000221237
-0.000258641
-0.000287027
-0.000303165
-0.000305312
-0.00029381
-0.00027107
-0.000240868
-0.00020727
-0.000173687
-0.000142425
-0.000114722
-9.10368e-05
-7.1339e-05
-5.53208e-05
-4.25314e-05
-3.2471e-05
-2.46523e-05
-1.86365e-05
-1.40464e-05
-1.05683e-05
-7.94765e-06
-5.98241e-06
-4.51472e-06
-3.42255e-06
-2.61202e-06
-2.01119e-06
-1.56559e-06
-1.23475e-06
-9.89139e-07
-8.07194e-07
-6.72701e-07
-5.73023e-07
-4.98224e-07
-4.40849e-07
-3.95786e-07
-3.59884e-07
-3.31242e-07
-3.08445e-07
-2.90007e-07
-2.74237e-07
-2.59428e-07
-2.44214e-07
-2.27825e-07
-2.10139e-07
-1.91505e-07
-1.72454e-07
-1.53398e-07
-1.34465e-07
-1.15452e-07
-9.59195e-08
-7.53279e-08
-5.27898e-08
-2.91583e-08
0.00012223
0.000122191
0.000122091
0.000121923
0.000121675
0.000121323
0.000120831
0.000120151
0.000119219
0.000117948
0.000116222
0.000113893
0.000110762
0.000106579
0.000101026
9.37099e-05
8.41556e-05
7.18103e-05
5.60591e-05
3.62649e-05
1.18402e-05
-1.76395e-05
-5.2275e-05
-9.1644e-05
-0.000134589
-0.00017905
-0.000222037
-0.000259835
-0.000288536
-0.00030485
-0.000306994
-0.000295314
-0.000272263
-0.000241691
-0.000207732
-0.000173844
-0.000142349
-0.000114486
-9.07015e-05
-7.09529e-05
-5.49193e-05
-4.21395e-05
-3.21042e-05
-2.43196e-05
-1.83417e-05
-1.37901e-05
-1.03487e-05
-7.762e-06
-5.8271e-06
-4.38601e-06
-3.31683e-06
-2.52585e-06
-1.94141e-06
-1.50936e-06
-1.18961e-06
-9.5301e-07
-7.7836e-07
-6.49739e-07
-5.54725e-07
-4.83542e-07
-4.28876e-07
-3.85767e-07
-3.51227e-07
-3.23513e-07
-3.01336e-07
-2.83297e-07
-2.67752e-07
-2.53021e-07
-2.37761e-07
-2.21235e-07
-2.03362e-07
-1.84535e-07
-1.65315e-07
-1.4613e-07
-1.27102e-07
-1.08009e-07
-8.83924e-08
-6.77296e-08
-4.53363e-08
-2.28236e-08
0.000122258
0.00012222
0.00012212
0.000121953
0.000121707
0.000121357
0.000120867
0.00012019
0.000119261
0.000117994
0.000116273
0.000113948
0.000110823
0.000106647
0.000101101
9.3792e-05
8.4246e-05
7.19097e-05
5.61681e-05
3.63837e-05
1.19688e-05
-1.75016e-05
-5.21289e-05
-9.14915e-05
-0.000134433
-0.000178894
-0.000221886
-0.000259694
-0.000288411
-0.000304745
-0.000306913
-0.000295257
-0.000272232
-0.000241683
-0.000207744
-0.000173871
-0.000142388
-0.000114533
-9.07527e-05
-7.10052e-05
-5.4971e-05
-4.21892e-05
-3.21512e-05
-2.43634e-05
-1.83822e-05
-1.38272e-05
-1.03827e-05
-7.79293e-06
-5.85524e-06
-4.41162e-06
-3.34016e-06
-2.54715e-06
-1.96089e-06
-1.5272e-06
-1.20596e-06
-9.68016e-07
-7.92174e-07
-6.62505e-07
-5.66569e-07
-4.94563e-07
-4.39145e-07
-3.95339e-07
-3.60155e-07
-3.3186e-07
-3.09175e-07
-2.90705e-07
-2.74803e-07
-2.59781e-07
-2.44285e-07
-2.27574e-07
-2.09569e-07
-1.90665e-07
-1.71428e-07
-1.52285e-07
-1.33347e-07
-1.14375e-07
-9.48871e-08
-7.43128e-08
-5.17787e-08
-2.83323e-08
0.000122228
0.000122188
0.000122083
0.000121909
0.000121654
0.000121291
0.000120785
0.000120088
0.000119135
0.000117839
0.000116085
0.000113721
0.000110552
0.000106328
0.000100731
9.33703e-05
8.37762e-05
7.14008e-05
5.5637e-05
3.58576e-05
1.14871e-05
-1.78859e-05
-5.23501e-05
-9.14754e-05
-0.000134105
-0.000178196
-0.000220789
-0.000258223
-0.000286655
-0.000302853
-0.000305069
-0.000293641
-0.000270974
-0.00024084
-0.000207303
-0.000173768
-0.000142541
-0.000114861
-9.11877e-05
-7.14938e-05
-5.54736e-05
-4.26785e-05
-3.26097e-05
-2.47815e-05
-1.87556e-05
-1.41553e-05
-1.06674e-05
-8.03739e-06
-6.06338e-06
-4.58759e-06
-3.48805e-06
-2.67082e-06
-2.06387e-06
-1.61262e-06
-1.27655e-06
-1.02611e-06
-8.39745e-07
-7.01234e-07
-5.97889e-07
-5.19702e-07
-4.59141e-07
-4.11053e-07
-3.72287e-07
-3.40974e-07
-3.15734e-07
-2.95097e-07
-2.77366e-07
-2.60811e-07
-2.44042e-07
-2.26279e-07
-2.07409e-07
-1.87795e-07
-1.67982e-07
-1.48378e-07
-1.29087e-07
-1.09863e-07
-9.02206e-08
-6.96027e-08
-4.72472e-08
-2.46047e-08
0.00012214
0.000122096
0.000121982
0.000121794
0.000121517
0.000121127
0.000120588
0.000119849
0.000118845
0.000117489
0.000115664
0.000113219
0.000109959
0.000105634
9.99298e-05
9.24613e-05
8.27652e-05
7.03054e-05
5.44904e-05
3.47132e-05
1.04226e-05
-1.87661e-05
-5.29166e-05
-9.15817e-05
-0.000133605
-0.00017697
-0.000218783
-0.000255483
-0.000283348
-0.000299262
-0.00030155
-0.000290539
-0.000268543
-0.000239194
-0.000206416
-0.000173526
-0.000142789
-0.000115447
-9.1983e-05
-7.23958e-05
-5.64064e-05
-4.35893e-05
-3.34649e-05
-2.5562e-05
-1.94528e-05
-1.47679e-05
-1.11986e-05
-8.49322e-06
-6.45126e-06
-4.91538e-06
-3.76351e-06
-2.90128e-06
-2.25605e-06
-1.77252e-06
-1.40939e-06
-1.13634e-06
-9.31097e-07
-7.76865e-07
-6.60485e-07
-5.71557e-07
-5.02198e-07
-4.4692e-07
-4.02255e-07
-3.66062e-07
-3.36748e-07
-3.12697e-07
-2.92115e-07
-2.73201e-07
-2.54499e-07
-2.35157e-07
-2.14988e-07
-1.9429e-07
-1.73554e-07
-1.53159e-07
-1.33195e-07
-1.13419e-07
-9.33464e-08
-7.24121e-08
-4.97895e-08
-2.67642e-08
0.000121998
0.000121948
0.00012182
0.000121609
0.000121302
0.000120871
0.000120281
0.00011948
0.000118401
0.000116954
0.000115024
0.000112459
0.000109062
0.000104588
9.87259e-05
9.10975e-05
8.12511e-05
6.86673e-05
5.27773e-05
3.30035e-05
8.82986e-06
-2.009e-05
-5.37842e-05
-9.1782e-05
-0.000132929
-0.000175249
-0.000215941
-0.000251586
-0.000278636
-0.000294142
-0.000296522
-0.000286093
-0.000265039
-0.000236798
-0.000205101
-0.000173132
-0.000143101
-0.000116251
-9.30935e-05
-7.36663e-05
-5.7727e-05
-4.48829e-05
-3.4682e-05
-2.66739e-05
-2.04464e-05
-1.56405e-05
-1.19544e-05
-9.14061e-06
-7.00062e-06
-5.37792e-06
-4.15033e-06
-3.2229e-06
-2.52218e-06
-1.99183e-06
-1.58947e-06
-1.28366e-06
-1.05113e-06
-8.74205e-07
-7.39053e-07
-6.34704e-07
-5.52768e-07
-4.8727e-07
-4.34289e-07
-3.91283e-07
-3.56354e-07
-3.27673e-07
-3.03304e-07
-2.81342e-07
-2.60236e-07
-2.39026e-07
-2.17408e-07
-1.95572e-07
-1.73922e-07
-1.52786e-07
-1.32232e-07
-1.12019e-07
-9.16774e-08
-7.06536e-08
-4.81521e-08
-2.55465e-08
0.000121805
0.000121748
0.000121602
0.000121361
0.000121013
0.00012053
0.000119874
0.000118991
0.000117813
0.00011625
0.000114184
0.000111462
0.00010789
0.000103224
9.71587e-05
8.93259e-05
7.92886e-05
6.65488e-05
5.0567e-05
3.0803e-05
6.78525e-06
-2.1785e-05
-5.48924e-05
-9.20387e-05
-0.000132073
-0.000173076
-0.00021236
-0.000246686
-0.000272723
-0.000287718
-0.00029021
-0.000280495
-0.000260604
-0.000233734
-0.000203384
-0.000172573
-0.000143438
-0.00011722
-9.44621e-05
-7.52486e-05
-5.93824e-05
-4.65123e-05
-3.62205e-05
-2.80838e-05
-2.17094e-05
-1.67523e-05
-1.29194e-05
-9.96884e-06
-7.70497e-06
-5.97237e-06
-4.64884e-06
-3.63878e-06
-2.86768e-06
-2.27798e-06
-1.8259e-06
-1.47861e-06
-1.21155e-06
-1.00595e-06
-8.4708e-07
-7.2323e-07
-6.25355e-07
-5.46861e-07
-4.83249e-07
-4.3148e-07
-3.89265e-07
-3.54506e-07
-3.25093e-07
-2.98994e-07
-2.74534e-07
-2.50618e-07
-2.26793e-07
-2.03106e-07
-1.79848e-07
-1.57276e-07
-1.35432e-07
-1.14081e-07
-9.27732e-08
-7.0983e-08
-4.79498e-08
-2.5218e-08
0.000121567
0.000121501
0.000121333
0.000121057
0.00012066
0.000120114
0.000119377
0.000118396
0.0001171
0.000115397
0.000113168
0.000110259
0.000106478
0.000101584
9.52784e-05
8.72054e-05
7.69456e-05
6.40269e-05
4.79445e-05
2.82024e-05
4.3803e-06
-2.37658e-05
-5.61718e-05
-9.23104e-05
-0.00013104
-0.000170507
-0.000208163
-0.000240972
-0.000265848
-0.00028026
-0.000282876
-0.000273971
-0.000255402
-0.000230103
-0.000201305
-0.000171842
-0.000143761
-0.000118294
-9.60202e-05
-7.70719e-05
-6.13045e-05
-4.84139e-05
-3.80229e-05
-2.974e-05
-2.31961e-05
-1.80626e-05
-1.40574e-05
-1.09455e-05
-8.53499e-06
-6.67187e-06
-5.23413e-06
-4.12548e-06
-3.27027e-06
-2.60953e-06
-2.09789e-06
-1.70092e-06
-1.39253e-06
-1.15267e-06
-9.65512e-07
-8.18471e-07
-7.01707e-07
-6.07889e-07
-5.31838e-07
-4.69924e-07
-4.19397e-07
-3.77838e-07
-3.42917e-07
-3.12444e-07
-2.84594e-07
-2.58103e-07
-2.32337e-07
-2.07167e-07
-1.82739e-07
-1.59216e-07
-1.36594e-07
-1.14638e-07
-9.29141e-08
-7.09137e-08
-4.78704e-08
-2.52791e-08
0.000121291
0.000121215
0.00012102
0.000120704
0.000120251
0.000119632
0.000118805
0.000117712
0.000116281
0.000114419
0.000112004
0.000108884
0.000104867
9.97165e-05
9.31432e-05
8.48036e-05
7.42997e-05
6.11888e-05
4.50051e-05
2.53015e-05
1.71447e-06
-2.59413e-05
-5.75506e-05
-9.25585e-05
-0.000129838
-0.000167613
-0.000203487
-0.000234648
-0.000258268
-0.000272052
-0.000274801
-0.000266765
-0.00024962
-0.000226018
-0.000198915
-0.000170936
-0.000144032
-0.000119416
-9.76989e-05
-7.90647e-05
-6.34237e-05
-5.0524e-05
-4.00329e-05
-3.15945e-05
-2.48665e-05
-1.95392e-05
-1.53434e-05
-1.20521e-05
-9.47783e-06
-7.46863e-06
-5.90281e-06
-4.68344e-06
-3.73367e-06
-2.99297e-06
-2.41426e-06
-1.96132e-06
-1.60639e-06
-1.32794e-06
-1.10891e-06
-9.35682e-07
-7.97518e-07
-6.86254e-07
-5.9595e-07
-5.22317e-07
-4.6209e-07
-4.12478e-07
-3.70905e-07
-3.34996e-07
-3.0276e-07
-2.72754e-07
-2.44146e-07
-2.16618e-07
-1.90159e-07
-1.64824e-07
-1.40562e-07
-1.17128e-07
-9.41109e-08
-7.10341e-08
-4.71925e-08
-2.43646e-08
0.000120983
0.000120896
0.000120673
0.000120312
0.000119798
0.000119099
0.000118172
0.000116956
0.000115378
0.000113342
0.000110726
0.000107376
0.000103104
9.7677e-05
9.08165e-05
8.21939e-05
7.14343e-05
5.81268e-05
4.18482e-05
2.22035e-05
-1.11165e-06
-2.82219e-05
-5.89618e-05
-9.27512e-05
-0.000128485
-0.000164471
-0.000198478
-0.000227924
-0.000250245
-0.000263382
-0.000266267
-0.000259123
-0.000243445
-0.000221605
-0.000196273
-0.000169866
-0.000144223
-0.000120532
-9.94299e-05
-8.11522e-05
-6.56652e-05
-5.2771e-05
-4.21841e-05
-3.35871e-05
-2.66666e-05
-2.11341e-05
-1.67347e-05
-1.32504e-05
-1.04991e-05
-8.33136e-06
-6.6261e-06
-5.28585e-06
-4.23256e-06
-3.40416e-06
-2.75174e-06
-2.23723e-06
-1.83109e-06
-1.51017e-06
-1.25611e-06
-1.05413e-06
-8.92513e-07
-7.62193e-07
-6.56412e-07
-5.70171e-07
-4.99636e-07
-4.41604e-07
-3.93208e-07
-3.51865e-07
-3.15394e-07
-2.82154e-07
-2.51108e-07
-2.21732e-07
-1.93843e-07
-1.67371e-07
-1.42196e-07
-1.1805e-07
-9.45252e-08
-7.11535e-08
-4.72215e-08
-2.44601e-08
0.000120651
0.000120553
0.0001203
0.000119891
0.000119312
0.000118529
0.000117495
0.000116149
0.000114416
0.000112195
0.000109366
0.000105775
0.000101236
9.55221e-05
8.83647e-05
7.94522e-05
6.84343e-05
5.49343e-05
3.8573e-05
1.90089e-05
-4.00209e-06
-3.05252e-05
-6.03467e-05
-9.28666e-05
-0.000127006
-0.000161167
-0.000193283
-0.000221005
-0.000242029
-0.000254521
-0.000257539
-0.000251282
-0.000237064
-0.000216989
-0.00019345
-0.000168651
-0.000144314
-0.000121595
-0.000101152
-8.32666e-05
-6.79598e-05
-5.50884e-05
-4.44156e-05
-3.56636e-05
-2.85499e-05
-2.28082e-05
-1.81993e-05
-1.45152e-05
-1.15799e-05
-9.24679e-06
-7.39568e-06
-5.92878e-06
-4.76689e-06
-3.84635e-06
-3.11647e-06
-2.53724e-06
-2.07726e-06
-1.71174e-06
-1.42085e-06
-1.18864e-06
-1.0023e-06