/*--------------------------------*- C++ -*----------------------------------*\
| =========                 |                                                 |
| \\      /  F ield         | OpenFOAM: The Open Source CFD Toolbox           |
|  \\    /   O peration     | Version:  2512                                  |
|   \\  /    A nd           | Website:  www.openfoam.com                      |
|    \\/     M anipulation  |                                                 |
\*---------------------------------------------------------------------------*/
FoamFile
{
    version     2.0;
    format      ascii;
    arch        "LSB;label=32;scalar=64";
    class       volScalarField;
    location    "158";
    object      p;
}
// * * * * * * * * * * * * * * * * * * * * * * * * * * * * * * * * * * * * * //

dimensions      [0 2 -2 0 0 0 0];

internalField   nonuniform List<scalar> 
335663
(
9.18136e-05
9.17089e-05
9.14391e-05
9.10063e-05
9.0404e-05
8.96084e-05
8.85869e-05
8.73005e-05
8.57024e-05
8.37373e-05
8.13411e-05
7.84409e-05
7.49561e-05
7.08002e-05
6.58841e-05
6.01202e-05
5.34294e-05
4.575e-05
3.70485e-05
2.73322e-05
1.66635e-05
5.17256e-06
-6.93217e-06
-1.93598e-05
-3.17412e-05
-4.36457e-05
-5.46098e-05
-6.41788e-05
-7.1954e-05
-7.76406e-05
-8.10844e-05
-8.22901e-05
-8.14156e-05
-7.87436e-05
-7.4638e-05
-6.94961e-05
-6.37042e-05
-5.76071e-05
-5.14888e-05
-4.55671e-05
-3.99958e-05
-3.48717e-05
-3.02456e-05
-2.61322e-05
-2.25202e-05
-1.9381e-05
-1.66757e-05
-1.43597e-05
-1.23872e-05
-1.07138e-05
-9.29746e-06
-8.10022e-06
-7.08817e-06
-6.23166e-06
-5.50506e-06
-4.88653e-06
-4.35759e-06
-3.90274e-06
-3.50905e-06
-3.16583e-06
-2.86424e-06
-2.59702e-06
-2.35824e-06
-2.14303e-06
-1.94742e-06
-1.76817e-06
-1.60265e-06
-1.44871e-06
-1.30461e-06
-1.16888e-06
-1.04033e-06
-9.17938e-07
-8.00843e-07
-6.8829e-07
-5.79605e-07
-4.74172e-07
-3.71392e-07
-2.70745e-07
-1.7116e-07
-7.84916e-08
9.18454e-05
9.17414e-05
9.14743e-05
9.10455e-05
9.04487e-05
8.96602e-05
8.86475e-05
8.73716e-05
8.5786e-05
8.38354e-05
8.14556e-05
7.85735e-05
7.5108e-05
7.09721e-05
6.60753e-05
6.03288e-05
5.36515e-05
4.59791e-05
3.72752e-05
2.75443e-05
1.68459e-05
5.30806e-06
-6.86169e-06
-1.93711e-05
-3.18475e-05
-4.38534e-05
-5.49166e-05
-6.45717e-05
-7.24101e-05
-7.81293e-05
-8.15716e-05
-8.27432e-05
-8.18079e-05
-7.90577e-05
-7.48668e-05
-6.96412e-05
-6.37744e-05
-5.76149e-05
-5.14484e-05
-4.54924e-05
-3.9899e-05
-3.47631e-05
-3.01331e-05
-2.60217e-05
-2.24156e-05
-1.92849e-05
-1.65891e-05
-1.42831e-05
-1.23205e-05
-1.06563e-05
-9.24843e-06
-8.05873e-06
-7.05329e-06
-6.20248e-06
-5.48077e-06
-4.86637e-06
-4.3409e-06
-3.88893e-06
-3.49764e-06
-3.1564e-06
-2.85643e-06
-2.59056e-06
-2.35287e-06
-2.13854e-06
-1.94366e-06
-1.765e-06
-1.59997e-06
-1.44643e-06
-1.30265e-06
-1.1672e-06
-1.03888e-06
-9.16687e-07
-7.99767e-07
-6.8737e-07
-5.7883e-07
-4.73534e-07
-3.7089e-07
-2.70376e-07
-1.70981e-07
-7.82339e-08
9.19077e-05
9.18056e-05
9.15435e-05
9.11227e-05
9.05367e-05
8.97621e-05
8.87667e-05
8.75118e-05
8.59509e-05
8.4029e-05
8.16816e-05
7.88352e-05
7.54081e-05
7.13117e-05
6.64536e-05
6.07418e-05
5.40914e-05
4.64333e-05
3.77256e-05
2.79665e-05
1.721e-05
5.57972e-06
-6.71848e-06
-1.93902e-05
-3.20551e-05
-4.4263e-05
-5.55236e-05
-6.53508e-05
-7.33158e-05
-7.91006e-05
-8.25402e-05
-8.36438e-05
-8.25873e-05
-7.96812e-05
-7.53201e-05
-6.99283e-05
-6.39126e-05
-5.76294e-05
-5.13675e-05
-4.53435e-05
-3.97066e-05
-3.45475e-05
-2.99101e-05
-2.58026e-05
-2.22084e-05
-1.90943e-05
-1.64177e-05
-1.41316e-05
-1.21884e-05
-1.05425e-05
-9.15135e-06
-7.97656e-06
-6.9842e-06
-6.1447e-06
-5.43265e-06
-4.82643e-06
-4.30782e-06
-3.86159e-06
-3.47505e-06
-3.13772e-06
-2.84098e-06
-2.57775e-06
-2.34222e-06
-2.12967e-06
-1.93622e-06
-1.75874e-06
-1.59467e-06
-1.44192e-06
-1.29879e-06
-1.16388e-06
-1.03601e-06
-9.14219e-07
-7.97644e-07
-6.85557e-07
-5.77302e-07
-4.72277e-07
-3.699e-07
-2.69653e-07
-1.7054e-07
-7.80119e-08
9.19993e-05
9.19001e-05
9.16455e-05
9.12363e-05
9.06663e-05
8.99122e-05
8.89424e-05
8.77183e-05
8.61941e-05
8.43145e-05
8.2015e-05
7.92217e-05
7.58515e-05
7.1814e-05
6.70134e-05
6.13537e-05
5.47441e-05
4.71084e-05
3.8396e-05
2.85965e-05
1.77551e-05
5.98864e-06
-6.49975e-06
-1.94125e-05
-3.23587e-05
-4.48686e-05
-5.6425e-05
-6.65104e-05
-7.46656e-05
-8.05487e-05
-8.39839e-05
-8.49845e-05
-8.37453e-05
-8.06049e-05
-7.59888e-05
-7.03488e-05
-6.41116e-05
-5.76451e-05
-5.12423e-05
-4.51186e-05
-3.94183e-05
-3.42258e-05
-2.95782e-05
-2.54775e-05
-2.19014e-05
-1.88123e-05
-1.61642e-05
-1.39077e-05
-1.19935e-05
-1.03747e-05
-9.00826e-06
-7.85552e-06
-6.88247e-06
-6.05965e-06
-5.36184e-06
-4.76767e-06
-4.25918e-06
-3.82137e-06
-3.44181e-06
-3.11025e-06
-2.81825e-06
-2.5589e-06
-2.32655e-06
-2.11659e-06
-1.92526e-06
-1.74951e-06
-1.58684e-06
-1.43525e-06
-1.29307e-06
-1.15896e-06
-1.03177e-06
-9.10556e-07
-7.94491e-07
-6.82862e-07
-5.75031e-07
-4.70409e-07
-3.68426e-07
-2.68575e-07
-1.69867e-07
-7.77094e-08
9.21182e-05
9.20228e-05
9.17776e-05
9.13837e-05
9.08344e-05
9.0107e-05
8.91704e-05
8.79866e-05
8.65099e-05
8.46855e-05
8.24487e-05
7.97248e-05
7.64292e-05
7.2469e-05
6.77446e-05
6.21541e-05
5.55994e-05
4.79947e-05
3.92786e-05
2.94286e-05
1.84781e-05
6.53503e-06
-6.20182e-06
-1.94313e-05
-3.27484e-05
-4.56582e-05
-5.76075e-05
-6.80369e-05
-7.64454e-05
-8.24593e-05
-8.58875e-05
-8.67495e-05
-8.52657e-05
-8.18128e-05
-7.68583e-05
-7.08901e-05
-6.43616e-05
-5.76555e-05
-5.10696e-05
-4.4817e-05
-3.90356e-05
-3.38011e-05
-2.91418e-05
-2.50512e-05
-2.14997e-05
-1.84441e-05
-1.58338e-05
-1.36162e-05
-1.17398e-05
-1.01565e-05
-8.82236e-06
-7.69834e-06
-6.75042e-06
-5.9493e-06
-5.27e-06
-4.69148e-06
-4.19612e-06
-3.76925e-06
-3.39876e-06
-3.07468e-06
-2.78883e-06
-2.53452e-06
-2.30629e-06
-2.09969e-06
-1.9111e-06
-1.73758e-06
-1.57674e-06
-1.42664e-06
-1.28571e-06
-1.15263e-06
-1.02631e-06
-9.05852e-07
-7.90447e-07
-6.79412e-07
-5.72131e-07
-4.68032e-07
-3.66561e-07
-2.67221e-07
-1.69029e-07
-7.7346e-08
9.22615e-05
9.21706e-05
9.1937e-05
9.15614e-05
9.10371e-05
9.03421e-05
8.94456e-05
8.83105e-05
8.68916e-05
8.51342e-05
8.29736e-05
8.03343e-05
7.713e-05
7.32646e-05
6.86341e-05
6.31297e-05
5.66442e-05
4.90804e-05
4.03632e-05
3.04551e-05
1.93751e-05
7.21916e-06
-5.81994e-06
-1.94373e-05
-3.32116e-05
-4.66164e-05
-5.90541e-05
-6.99122e-05
-7.8637e-05
-8.48137e-05
-8.8232e-05
-8.89191e-05
-8.71283e-05
-8.32853e-05
-7.79102e-05
-7.1537e-05
-6.46511e-05
-5.76528e-05
-5.08453e-05
-4.44381e-05
-3.85606e-05
-3.32778e-05
-2.86065e-05
-2.453e-05
-2.101e-05
-1.7996e-05
-1.54324e-05
-1.32626e-05
-1.14326e-05
-9.89248e-06
-8.59754e-06
-7.50839e-06
-6.59093e-06
-5.81606e-06
-5.15915e-06
-4.59954e-06
-4.12002e-06
-3.70636e-06
-3.3468e-06
-3.03174e-06
-2.75329e-06
-2.50506e-06
-2.28179e-06
-2.07924e-06
-1.89395e-06
-1.72312e-06
-1.56447e-06
-1.41618e-06
-1.27674e-06
-1.1449e-06
-1.01965e-06
-9.00095e-07
-7.8549e-07
-6.75175e-07
-5.68561e-07
-4.65097e-07
-3.64248e-07
-2.65528e-07
-1.67958e-07
-7.68564e-08
9.2426e-05
9.23402e-05
9.212e-05
9.17654e-05
9.12699e-05
9.0612e-05
8.97618e-05
8.86828e-05
8.73306e-05
8.56507e-05
8.35784e-05
8.10373e-05
7.79394e-05
7.41852e-05
6.96652e-05
6.42632e-05
5.78613e-05
5.0349e-05
4.16353e-05
3.16649e-05
2.04391e-05
8.03915e-06
-5.35021e-06
-1.94209e-05
-3.37329e-05
-4.77235e-05
-6.0742e-05
-7.21116e-05
-8.12145e-05
-8.75852e-05
-9.09898e-05
-9.14652e-05
-8.93051e-05
-8.49957e-05
-7.9121e-05
-7.227e-05
-6.49656e-05
-5.7628e-05
-5.05653e-05
-4.39822e-05
-3.79971e-05
-3.26618e-05
-2.79798e-05
-2.39223e-05
-2.04407e-05
-1.74766e-05
-1.49681e-05
-1.28543e-05
-1.10783e-05
-9.58839e-06
-8.33892e-06
-7.29006e-06
-6.40776e-06
-5.66315e-06
-5.032e-06
-4.49414e-06
-4.03285e-06
-3.63434e-06
-3.28734e-06
-2.98262e-06
-2.71268e-06
-2.4714e-06
-2.25382e-06
-2.05591e-06
-1.8744e-06
-1.70665e-06
-1.55052e-06
-1.40429e-06
-1.26655e-06
-1.13615e-06
-1.0121e-06
-8.93586e-07
-7.79894e-07
-6.70403e-07
-5.64552e-07
-4.61817e-07
-3.6168e-07
-2.63666e-07
-1.66804e-07
-7.63523e-08
9.26077e-05
9.25277e-05
9.23221e-05
9.19909e-05
9.15273e-05
9.09106e-05
9.01117e-05
8.90951e-05
8.7817e-05
8.62236e-05
8.42499e-05
8.1819e-05
7.88408e-05
7.52122e-05
7.0818e-05
6.55335e-05
5.92293e-05
5.178e-05
4.30764e-05
3.30428e-05
2.16598e-05
8.99082e-06
-4.78964e-06
-1.93714e-05
-3.42946e-05
-4.89556e-05
-6.26423e-05
-7.46029e-05
-8.41435e-05
-9.07383e-05
-9.41248e-05
-9.43515e-05
-9.17612e-05
-8.69116e-05
-8.04629e-05
-7.30671e-05
-6.52899e-05
-5.75724e-05
-5.0227e-05
-4.34513e-05
-3.73507e-05
-3.19614e-05
-2.72716e-05
-2.32387e-05
-1.98026e-05
-1.6896e-05
-1.44502e-05
-1.23997e-05
-1.06845e-05
-9.25085e-06
-8.05213e-06
-7.04816e-06
-6.20493e-06
-5.4939e-06
-4.89132e-06
-4.37755e-06
-3.9364e-06
-3.55466e-06
-3.22152e-06
-2.92823e-06
-2.66767e-06
-2.43408e-06
-2.22278e-06
-2.02999e-06
-1.85264e-06
-1.68828e-06
-1.53493e-06
-1.39098e-06
-1.25513e-06
-1.1263e-06
-1.00359e-06
-8.86226e-07
-7.73547e-07
-6.64971e-07
-5.59971e-07
-4.5805e-07
-3.58708e-07
-2.61484e-07
-1.65412e-07
-7.57032e-08
9.28024e-05
9.27286e-05
9.25388e-05
9.22326e-05
9.18033e-05
9.12309e-05
9.04873e-05
8.95379e-05
8.83398e-05
8.68399e-05
8.49732e-05
8.26621e-05
7.98145e-05
7.63238e-05
7.20687e-05
6.69155e-05
6.07226e-05
5.3348e-05
4.46627e-05
3.45683e-05
2.30219e-05
1.00662e-05
-4.13779e-06
-1.92791e-05
-3.48774e-05
-5.02845e-05
-6.47197e-05
-7.73454e-05
-8.73797e-05
-9.42267e-05
-9.759e-05
-9.7532e-05
-9.4453e-05
-8.89945e-05
-8.19037e-05
-7.39042e-05
-6.5608e-05
-5.7478e-05
-4.98292e-05
-4.28497e-05
-3.66296e-05
-3.11874e-05
-2.64941e-05
-2.24918e-05
-1.91082e-05
-1.62661e-05
-1.38899e-05
-1.1909e-05
-1.02601e-05
-8.88766e-06
-7.74396e-06
-6.78853e-06
-5.98747e-06
-5.31262e-06
-4.74076e-06
-4.25286e-06
-3.83335e-06
-3.46959e-06
-3.15132e-06
-2.87027e-06
-2.61976e-06
-2.39439e-06
-2.1898e-06
-2.00248e-06
-1.82959e-06
-1.66886e-06
-1.51846e-06
-1.37694e-06
-1.2431e-06
-1.11595e-06
-9.94664e-07
-8.78525e-07
-7.66924e-07
-6.59321e-07
-5.55226e-07
-4.54171e-07
-3.55676e-07
-2.59292e-07
-1.64056e-07
-7.51173e-08
9.30057e-05
9.29383e-05
9.2765e-05
9.2485e-05
9.20915e-05
9.15654e-05
9.08797e-05
9.00009e-05
8.88869e-05
8.74854e-05
8.57317e-05
8.35475e-05
8.0839e-05
7.74957e-05
7.33905e-05
6.83804e-05
6.23108e-05
5.50226e-05
4.63653e-05
3.62158e-05
2.45052e-05
1.12523e-05
-3.39769e-06
-1.91356e-05
-3.54609e-05
-5.16781e-05
-6.69316e-05
-8.02885e-05
-9.08673e-05
-9.79914e-05
-0.000101326
-0.00010095
-9.73283e-05
-9.11992e-05
-8.34077e-05
-7.47559e-05
-6.59049e-05
-5.73388e-05
-4.93733e-05
-4.21848e-05
-3.58453e-05
-3.03536e-05
-2.56621e-05
-2.16968e-05
-1.8372e-05
-1.56006e-05
-1.32994e-05
-1.13929e-05
-9.81459e-06
-8.50694e-06
-7.42129e-06
-6.51692e-06
-5.76011e-06
-5.12316e-06
-4.58345e-06
-4.12259e-06
-3.72566e-06
-3.38065e-06
-3.07788e-06
-2.80958e-06
-2.56953e-06
-2.35273e-06
-2.15514e-06
-1.97352e-06
-1.80526e-06
-1.6483e-06
-1.50099e-06
-1.362e-06
-1.23026e-06
-1.10487e-06
-9.85072e-07
-8.70218e-07
-7.59748e-07
-6.5317e-07
-5.50031e-07
-4.49892e-07
-3.52296e-07
-2.56802e-07
-1.62457e-07
-7.43618e-08
9.32126e-05
9.31518e-05
9.29953e-05
9.2742e-05
9.23851e-05
9.19062e-05
9.12797e-05
9.04731e-05
8.94454e-05
8.8145e-05
8.65077e-05
8.44547e-05
8.18905e-05
7.87012e-05
7.47536e-05
6.98956e-05
6.39593e-05
5.67681e-05
4.81491e-05
3.7953e-05
2.60827e-05
1.25306e-05
-2.57715e-06
-1.89354e-05
-3.60248e-05
-5.3101e-05
-6.92289e-05
-8.33714e-05
-9.45372e-05
-0.00010196
-0.00010526
-0.000104536
-0.000100326
-9.34749e-05
-8.49363e-05
-7.55964e-05
-6.61668e-05
-5.71517e-05
-4.88645e-05
-4.14674e-05
-3.50124e-05
-2.9477e-05
-2.47935e-05
-2.08712e-05
-1.76107e-05
-1.49147e-05
-1.26926e-05
-1.08639e-05
-9.35888e-06
-8.11818e-06
-7.09232e-06
-6.24038e-06
-5.52892e-06
-4.93075e-06
-4.42387e-06
-3.99059e-06
-3.61667e-06
-3.29075e-06
-3.00373e-06
-2.7484e-06
-2.51899e-06
-2.31088e-06
-2.12039e-06
-1.94454e-06
-1.78098e-06
-1.62784e-06
-1.48364e-06
-1.34721e-06
-1.21758e-06
-1.09396e-06
-9.75657e-07
-8.62089e-07
-7.52751e-07
-6.47197e-07
-5.45015e-07
-4.45795e-07
-3.49099e-07
-2.54498e-07
-1.6104e-07
-7.37605e-08
9.34184e-05
9.33642e-05
9.32243e-05
9.29976e-05
9.2677e-05
9.22453e-05
9.16778e-05
9.09433e-05
9.00018e-05
8.88028e-05
8.72825e-05
8.53619e-05
8.29439e-05
7.99115e-05
7.61256e-05
7.14253e-05
6.56296e-05
5.85442e-05
4.99735e-05
3.97413e-05
2.77207e-05
1.38755e-05
-1.68983e-06
-1.86771e-05
-3.65498e-05
-5.45153e-05
-7.15552e-05
-8.65226e-05
-9.83071e-05
-0.000106044
-0.000109305
-0.000108208
-0.000103375
-9.57653e-05
-8.64492e-05
-7.6401e-05
-6.63831e-05
-5.6917e-05
-4.83117e-05
-4.07125e-05
-3.41493e-05
-2.85773e-05
-2.39083e-05
-2.00342e-05
-1.68422e-05
-1.42246e-05
-1.20837e-05
-1.03343e-05
-8.90342e-06
-7.73019e-06
-6.76434e-06
-5.9649e-06
-5.29873e-06
-4.7392e-06
-4.26501e-06
-3.85914e-06
-3.50809e-06
-3.2011e-06
-2.92972e-06
-2.68725e-06
-2.46838e-06
-2.2689e-06
-2.08544e-06
-1.91532e-06
-1.75642e-06
-1.60707e-06
-1.46597e-06
-1.33209e-06
-1.20457e-06
-1.08272e-06
-9.65914e-07
-8.53637e-07
-7.45438e-07
-6.40917e-07
-5.39702e-07
-4.41415e-07
-3.45636e-07
-2.51943e-07
-1.59393e-07
-7.29781e-08
9.36183e-05
9.35704e-05
9.34468e-05
9.32457e-05
9.29605e-05
9.25745e-05
9.20644e-05
9.14001e-05
9.05428e-05
8.94429e-05
8.80373e-05
8.62468e-05
8.39732e-05
8.10965e-05
7.74723e-05
7.29312e-05
6.72797e-05
6.03062e-05
5.17929e-05
4.15362e-05
2.93788e-05
1.52546e-05
-7.55977e-07
-1.83642e-05
-3.70193e-05
-5.58815e-05
-7.3849e-05
-8.96606e-05
-0.000102081
-0.00011014
-0.000113359
-0.000111875
-0.000106397
-9.80101e-05
-8.79054e-05
-7.71472e-05
-6.65466e-05
-5.664e-05
-4.77288e-05
-3.99392e-05
-3.32782e-05
-2.76779e-05
-2.30295e-05
-1.92076e-05
-1.60864e-05
-1.35483e-05
-1.14889e-05
-9.81813e-06
-8.46052e-06
-7.35361e-06
-6.44656e-06
-5.69841e-06
-5.0764e-06
-4.55448e-06
-4.11203e-06
-3.73277e-06
-3.40387e-06
-3.11523e-06
-2.85897e-06
-2.62892e-06
-2.42023e-06
-2.22907e-06
-2.0524e-06
-1.88779e-06
-1.73336e-06
-1.58765e-06
-1.44951e-06
-1.31805e-06
-1.19255e-06
-1.07237e-06
-9.56984e-07
-8.45922e-07
-7.38789e-07
-6.35234e-07
-5.34925e-07
-4.37512e-07
-3.42594e-07
-2.49755e-07
-1.58053e-07
-7.24168e-08
9.38076e-05
9.37657e-05
9.36573e-05
9.34806e-05
9.32287e-05
9.2886e-05
9.24302e-05
9.18324e-05
9.10551e-05
9.00494e-05
8.87531e-05
8.70871e-05
8.49521e-05
8.22255e-05
7.87584e-05
7.43734e-05
6.88654e-05
6.20064e-05
5.35571e-05
4.32874e-05
3.10101e-05
1.66283e-05
1.97347e-07
-1.80062e-05
-3.74201e-05
-5.71606e-05
-7.60441e-05
-9.26952e-05
-0.000105751
-0.000114132
-0.000117306
-0.00011543
-0.000109306
-0.000100146
-8.92652e-05
-7.78156e-05
-6.66549e-05
-5.63304e-05
-4.71335e-05
-3.91703e-05
-3.2424e-05
-2.68038e-05
-2.21808e-05
-1.84134e-05
-1.5363e-05
-1.29031e-05
-1.09227e-05
-9.3278e-06
-8.04042e-06
-6.99682e-06
-6.14573e-06
-5.44625e-06
-4.86605e-06
-4.37968e-06
-3.96722e-06
-3.61306e-06
-3.30503e-06
-3.03367e-06
-2.79166e-06
-2.57332e-06
-2.37423e-06
-2.19092e-06
-2.02065e-06
-1.86124e-06
-1.71104e-06
-1.56877e-06
-1.43345e-06
-1.30431e-06
-1.18073e-06
-1.06216e-06
-9.48135e-07
-8.38242e-07
-7.32139e-07
-6.2952e-07
-5.30091e-07
-4.33529e-07
-3.3945e-07
-2.47444e-07
-1.56572e-07
-7.17245e-08
9.39819e-05
9.39454e-05
9.3851e-05
9.36965e-05
9.34753e-05
9.31723e-05
9.27663e-05
9.22296e-05
9.15257e-05
9.0607e-05
8.94117e-05
8.78609e-05
8.58547e-05
8.32685e-05
7.9949e-05
7.57119e-05
7.03416e-05
6.35953e-05
5.52135e-05
4.49414e-05
3.25629e-05
1.79515e-05
1.13674e-06
-1.76183e-05
-3.77435e-05
-5.83151e-05
-7.80727e-05
-9.55303e-05
-0.000109199
-0.000117892
-0.000121021
-0.000118764
-0.000112014
-0.000102111
-9.04913e-05
-7.83915e-05
-6.67104e-05
-5.60029e-05
-4.65484e-05
-3.84322e-05
-3.16144e-05
-2.59824e-05
-2.13884e-05
-1.76755e-05
-1.46936e-05
-1.23079e-05
-1.04019e-05
-8.87791e-06
-7.6558e-06
-6.67083e-06
-5.87138e-06
-5.21671e-06
-4.67492e-06
-4.22117e-06
-3.83617e-06
-3.50497e-06
-3.21601e-06
-2.96042e-06
-2.73139e-06
-2.52371e-06
-2.33334e-06
-2.15716e-06
-1.99268e-06
-1.83797e-06
-1.69158e-06
-1.55239e-06
-1.41958e-06
-1.29251e-06
-1.17063e-06
-1.05348e-06
-9.40641e-07
-8.31761e-07
-7.26543e-07
-6.24725e-07
-5.26048e-07
-4.30217e-07
-3.36861e-07
-2.45574e-07
-1.55416e-07
-7.12292e-08
9.41371e-05
9.41054e-05
9.40234e-05
9.38886e-05
9.36943e-05
9.34263e-05
9.30645e-05
9.25818e-05
9.19431e-05
9.11014e-05
8.99958e-05
8.85478e-05
8.66568e-05
8.41966e-05
8.10102e-05
7.69077e-05
7.16641e-05
6.50236e-05
5.67089e-05
4.64428e-05
3.39829e-05
1.91749e-05
2.02392e-06
-1.72215e-05
-3.79859e-05
-5.93115e-05
-7.98682e-05
-9.8068e-05
-0.000112304
-0.000121286
-0.000124371
-0.000121759
-0.000114429
-0.000103843
-9.15504e-05
-7.88644e-05
-6.67197e-05
-5.56755e-05
-4.5998e-05
-3.77525e-05
-3.08775e-05
-2.52405e-05
-2.06766e-05
-1.70154e-05
-1.40967e-05
-1.17785e-05
-9.93959e-06
-8.47913e-06
-7.31525e-06
-6.38237e-06
-5.62869e-06
-5.01365e-06
-4.50579e-06
-4.08081e-06
-3.72002e-06
-3.40904e-06
-3.13688e-06
-2.89518e-06
-2.67759e-06
-2.47932e-06
-2.29667e-06
-2.12679e-06
-1.96744e-06
-1.81691e-06
-1.67391e-06
-1.53748e-06
-1.40693e-06
-1.28172e-06
-1.16139e-06
-1.04553e-06
-9.33778e-07
-8.25828e-07
-7.21423e-07
-6.20341e-07
-5.22356e-07
-4.27197e-07
-3.34505e-07
-2.43874e-07
-1.54365e-07
-7.07815e-08
9.42696e-05
9.42421e-05
9.41704e-05
9.40521e-05
9.38806e-05
9.36421e-05
9.33173e-05
9.28803e-05
9.22964e-05
9.15198e-05
9.04903e-05
8.91293e-05
8.73363e-05
8.49834e-05
8.19112e-05
7.79247e-05
7.27916e-05
6.62448e-05
5.79924e-05
4.77378e-05
3.5216e-05
2.02485e-05
2.81813e-06
-1.68402e-05
-3.81485e-05
-6.0121e-05
-8.13682e-05
-0.000100213
-0.000114945
-0.000124179
-0.000127226
-0.000124302
-0.000116466
-0.000105287
-9.24147e-05
-7.92294e-05
-6.66939e-05
-5.53694e-05
-4.55091e-05
-3.71601e-05
-3.02422e-05
-2.46055e-05
-2.00706e-05
-1.64558e-05
-1.35924e-05
-1.13327e-05
-9.55119e-06
-8.14487e-06
-7.03041e-06
-6.14162e-06
-5.42656e-06
-4.8449e-06
-4.36556e-06
-3.96473e-06
-3.62422e-06
-3.33017e-06
-3.07205e-06
-2.84194e-06
-2.63389e-06
-2.44343e-06
-2.26718e-06
-2.10251e-06
-1.94739e-06
-1.80028e-06
-1.66004e-06
-1.52584e-06
-1.39711e-06
-1.27338e-06
-1.15427e-06
-1.03942e-06
-9.28509e-07
-8.21265e-07
-7.17469e-07
-6.16933e-07
-5.19461e-07
-4.24799e-07
-3.32602e-07
-2.42464e-07
-1.53447e-07
-7.03391e-08
9.43766e-05
9.43523e-05
9.42888e-05
9.41834e-05
9.40297e-05
9.38145e-05
9.35188e-05
9.31176e-05
9.25769e-05
9.18516e-05
9.08818e-05
8.95896e-05
8.7874e-05
8.56063e-05
8.2625e-05
7.87314e-05
7.36874e-05
6.72175e-05
5.90179e-05
4.87772e-05
3.62121e-05
2.11247e-05
3.47946e-06
-1.65006e-05
-3.82364e-05
-6.0721e-05
-8.25185e-05
-0.00010188
-0.00011701
-0.000126448
-0.000129465
-0.000126289
-0.000118046
-0.000106394
-9.30623e-05
-7.94846e-05
-6.66453e-05
-5.51051e-05
-4.51063e-05
-3.66808e-05
-2.97333e-05
-2.41001e-05
-1.95904e-05
-1.60138e-05
-1.31951e-05
-1.09819e-05
-9.24605e-06
-7.88247e-06
-6.80688e-06
-5.95269e-06
-5.26789e-06
-4.71235e-06
-4.25532e-06
-3.87338e-06
-3.54874e-06
-3.26794e-06
-3.02083e-06
-2.79981e-06
-2.59926e-06
-2.41497e-06
-2.24377e-06
-2.08324e-06
-1.9315e-06
-1.78712e-06
-1.6491e-06
-1.51671e-06
-1.38945e-06
-1.26695e-06
-1.14885e-06
-1.03484e-06
-9.2463e-07
-8.17976e-07
-7.14687e-07
-6.14604e-07
-5.17552e-07
-4.23295e-07
-3.31494e-07
-2.41743e-07
-1.53096e-07
-7.02986e-08
9.44557e-05
9.44336e-05
9.43758e-05
9.42795e-05
9.41383e-05
9.39393e-05
9.36641e-05
9.32879e-05
9.27775e-05
9.2088e-05
9.11602e-05
8.99162e-05
8.82549e-05
8.60472e-05
8.313e-05
7.93022e-05
7.43219e-05
6.79076e-05
5.97477e-05
4.952e-05
3.6929e-05
2.17627e-05
3.97276e-06
-1.62267e-05
-3.82565e-05
-6.10956e-05
-8.32757e-05
-0.000102999
-0.000118408
-0.00012799
-0.000130984
-0.000127634
-0.000119106
-0.000107126
-9.34776e-05
-7.96319e-05
-6.65869e-05
-5.49025e-05
-4.48125e-05
-3.63381e-05
-2.93734e-05
-2.37453e-05
-1.92552e-05
-1.57064e-05
-1.29197e-05
-1.07396e-05
-9.03572e-06
-7.70203e-06
-6.65356e-06
-5.82342e-06
-5.15962e-06
-4.62217e-06
-4.18057e-06
-3.81166e-06
-3.49797e-06
-3.22628e-06
-2.98671e-06
-2.77192e-06
-2.57648e-06
-2.39638e-06
-2.22861e-06
-2.07085e-06
-1.92135e-06
-1.77879e-06
-1.64221e-06
-1.51098e-06
-1.38466e-06
-1.26291e-06
-1.14543e-06
-1.03193e-06
-9.22121e-07
-8.15795e-07
-7.12777e-07
-6.12927e-07
-5.16088e-07
-4.22035e-07
-3.30433e-07
-2.4088e-07
-1.52437e-07
-6.98804e-08
9.45051e-05
9.44842e-05
9.44296e-05
9.43384e-05
9.4204e-05
9.40138e-05
9.37497e-05
9.33872e-05
9.28932e-05
9.22232e-05
9.13181e-05
9.01002e-05
8.84684e-05
8.62932e-05
8.34109e-05
7.96191e-05
7.46739e-05
6.8291e-05
6.01543e-05
4.99366e-05
3.73356e-05
2.21323e-05
4.27136e-06
-1.60377e-05
-3.82158e-05
-6.1235e-05
-8.36105e-05
-0.000103518
-0.000119071
-0.000128727
-0.000131711
-0.000128272
-0.000119601
-0.000107456
-9.36508e-05
-7.96734e-05
-6.65287e-05
-5.47755e-05
-4.46431e-05
-3.61474e-05
-2.91769e-05
-2.35537e-05
-1.90755e-05
-1.55425e-05
-1.27733e-05
-1.06109e-05
-8.92422e-06
-7.60643e-06
-6.57233e-06
-5.75492e-06
-5.10224e-06
-4.57437e-06
-4.14095e-06
-3.77899e-06
-3.47113e-06
-3.20433e-06
-2.96883e-06
-2.75742e-06
-2.56477e-06
-2.38698e-06
-2.22111e-06
-2.06491e-06
-1.91669e-06
-1.77515e-06
-1.6394e-06
-1.50885e-06
-1.38308e-06
-1.26178e-06
-1.14467e-06
-1.03146e-06
-9.21893e-07
-8.15753e-07
-7.1288e-07
-6.13145e-07
-5.164e-07
-4.22425e-07
-3.3089e-07
-2.41387e-07
-1.52964e-07
-7.03527e-08
9.45241e-05
9.45034e-05
9.44492e-05
9.43588e-05
9.42254e-05
9.40365e-05
9.3774e-05
9.34134e-05
9.29215e-05
9.22541e-05
9.13518e-05
9.01371e-05
8.85089e-05
8.63376e-05
8.34596e-05
7.96726e-05
7.47324e-05
6.83546e-05
6.02233e-05
5.0011e-05
3.74153e-05
2.2217e-05
4.36063e-06
-1.59444e-05
-3.8119e-05
-6.11353e-05
-8.35084e-05
-0.000103414
-0.000118966
-0.000128621
-0.000131607
-0.000128172
-0.000119508
-0.000107372
-9.35781e-05
-7.96117e-05
-6.64771e-05
-5.47327e-05
-4.46079e-05
-3.61184e-05
-2.91531e-05
-2.35342e-05
-1.90594e-05
-1.55293e-05
-1.27624e-05
-1.0602e-05
-8.91695e-06
-7.60054e-06
-6.56759e-06
-5.75117e-06
-5.09931e-06
-4.57215e-06
-4.13932e-06
-3.77786e-06
-3.47042e-06
-3.20397e-06
-2.96876e-06
-2.75758e-06
-2.56512e-06
-2.38748e-06
-2.22172e-06
-2.06561e-06
-1.91743e-06
-1.77592e-06
-1.64017e-06
-1.5096e-06
-1.38381e-06
-1.26247e-06
-1.14531e-06
-1.03204e-06
-9.22399e-07
-8.16177e-07
-7.13212e-07
-6.13376e-07
-5.1652e-07
-4.22426e-07
-3.30764e-07
-2.4113e-07
-1.5259e-07
-6.99601e-08
9.45125e-05
9.4491e-05
9.44346e-05
9.43406e-05
9.42025e-05
9.40073e-05
9.37367e-05
9.33662e-05
9.28622e-05
9.21803e-05
9.1261e-05
9.00266e-05
8.8376e-05
8.61801e-05
8.32758e-05
7.9462e-05
7.44966e-05
6.80979e-05
5.9954e-05
4.97424e-05
3.71671e-05
2.20157e-05
4.23943e-06
-1.5948e-05
-3.79674e-05
-6.07978e-05
-8.29707e-05
-0.000102688
-0.000118094
-0.000127675
-0.000130674
-0.000127336
-0.00011883
-0.000106877
-9.32604e-05
-7.9447e-05
-6.6432e-05
-5.47737e-05
-4.47059e-05
-3.625e-05
-2.93007e-05
-2.36851e-05
-1.92052e-05
-1.56649e-05
-1.28852e-05
-1.07109e-05
-9.01197e-06
-7.68244e-06
-6.6375e-06
-5.81039e-06
-5.1492e-06
-4.61401e-06
-4.17435e-06
-3.80714e-06
-3.49491e-06
-3.22449e-06
-2.98602e-06
-2.77217e-06
-2.57753e-06
-2.39812e-06
-2.23092e-06
-2.07365e-06
-1.92453e-06
-1.78224e-06
-1.64587e-06
-1.51478e-06
-1.38855e-06
-1.26685e-06
-1.14937e-06
-1.03582e-06
-9.25927e-07
-8.19466e-07
-7.16268e-07
-6.16195e-07
-5.19092e-07
-4.24736e-07
-3.32794e-07
-2.42859e-07
-1.53978e-07
-7.09215e-08
9.4471e-05
9.44476e-05
9.43864e-05
9.42848e-05
9.41361e-05
9.39272e-05
9.36393e-05
9.32474e-05
9.27175e-05
9.20045e-05
9.10489e-05
8.97726e-05
8.80747e-05
8.58265e-05
8.28666e-05
7.8996e-05
7.39765e-05
6.75323e-05
5.93591e-05
4.91448e-05
3.66057e-05
2.15428e-05
3.92e-06
-1.60402e-05
-3.7759e-05
-6.02294e-05
-8.20151e-05
-0.000101368
-0.000116492
-0.00012593
-0.000128955
-0.000125801
-0.000117591
-0.000105984
-9.27043e-05
-7.91792e-05
-6.63888e-05
-5.48916e-05
-4.49294e-05
-3.65346e-05
-2.96125e-05
-2.40003e-05
-1.95078e-05
-1.59454e-05
-1.31384e-05
-1.09351e-05
-9.2074e-06
-7.85076e-06
-6.78107e-06
-5.93189e-06
-5.25139e-06
-4.69953e-06
-4.24566e-06
-3.86643e-06
-3.54412e-06
-3.2653e-06
-3.01987e-06
-2.80027e-06
-2.60091e-06
-2.41761e-06
-2.24724e-06
-2.08735e-06
-1.93609e-06
-1.79206e-06
-1.65426e-06
-1.52198e-06
-1.39476e-06
-1.27222e-06
-1.15404e-06
-1.03987e-06
-9.29441e-07
-8.22497e-07
-7.18852e-07
-6.1835e-07
-5.2082e-07
-4.2603e-07
-3.33642e-07
-2.43258e-07
-1.53948e-07
-7.06124e-08
9.44009e-05
9.43746e-05
9.43062e-05
9.41931e-05
9.40285e-05
9.37989e-05
9.34849e-05
9.30607e-05
9.24917e-05
9.17324e-05
9.07223e-05
8.93834e-05
8.76148e-05
8.52889e-05
8.22462e-05
7.82914e-05
7.3192e-05
6.66806e-05
5.84645e-05
4.82462e-05
3.576e-05
2.08262e-05
3.42673e-06
-1.62044e-05
-3.74894e-05
-5.94425e-05
-8.0674e-05
-9.95073e-05
-0.000114232
-0.000123467
-0.000126527
-0.000123632
-0.000115842
-0.000104724
-9.19213e-05
-7.88068e-05
-6.63377e-05
-5.50717e-05
-4.52617e-05
-3.69549e-05
-3.00722e-05
-2.44646e-05
-1.99536e-05
-1.63585e-05
-1.35117e-05
-1.12656e-05
-9.49566e-06
-8.0991e-06
-6.99294e-06
-6.11123e-06
-5.40225e-06
-4.82582e-06
-4.35099e-06
-3.95406e-06
-3.61691e-06
-3.32575e-06
-3.0701e-06
-2.8421e-06
-2.63585e-06
-2.44691e-06
-2.27193e-06
-2.10829e-06
-1.95398e-06
-1.80747e-06
-1.66765e-06
-1.53373e-06
-1.40515e-06
-1.28148e-06
-1.16233e-06
-1.04735e-06
-9.36207e-07
-8.28631e-07
-7.24403e-07
-6.23341e-07
-5.25254e-07
-4.29894e-07
-3.36917e-07
-2.45922e-07
-1.55959e-07
-7.18978e-08
9.43043e-05
9.42744e-05
9.41965e-05
9.40683e-05
9.38829e-05
9.36261e-05
9.32779e-05
9.28115e-05
9.21917e-05
9.13718e-05
9.02911e-05
8.88709e-05
8.70109e-05
8.45846e-05
8.14355e-05
7.73729e-05
7.21719e-05
6.55757e-05
5.73066e-05
4.70861e-05
3.46708e-05
1.99051e-05
2.79276e-06
-1.64185e-05
-3.71539e-05
-5.84555e-05
-7.89932e-05
-9.71792e-05
-0.000111408
-0.000120393
-0.000123496
-0.00012092
-0.000113648
-0.000103137
-9.0929e-05
-7.83301e-05
-6.62673e-05
-5.52961e-05
-4.56816e-05
-3.74893e-05
-3.06591e-05
-2.50591e-05
-2.05259e-05
-1.68902e-05
-1.39927e-05
-1.16923e-05
-9.8683e-06
-8.42046e-06
-7.2673e-06
-6.34357e-06
-5.5977e-06
-4.98937e-06
-4.48727e-06
-4.06725e-06
-3.71071e-06
-3.40336e-06
-3.13431e-06
-2.89523e-06
-2.67986e-06
-2.48344e-06
-2.30232e-06
-2.13366e-06
-1.97526e-06
-1.82542e-06
-1.68287e-06
-1.54672e-06
-1.41629e-06
-1.29108e-06
-1.17063e-06
-1.05454e-06
-9.42446e-07
-8.3403e-07
-7.2904e-07
-6.27259e-07
-5.28468e-07
-4.32401e-07
-3.38709e-07
-2.46996e-07
-1.56343e-07
-7.17652e-08
9.41841e-05
9.41497e-05
9.40603e-05
9.39138e-05
9.37032e-05
9.34137e-05
9.30242e-05
9.25071e-05
9.1826e-05
9.09334e-05
8.97678e-05
8.82504e-05
8.62813e-05
8.37358e-05
8.04606e-05
7.62712e-05
7.09515e-05
6.4258e-05
5.59303e-05
4.57123e-05
3.33867e-05
1.88253e-05
2.05631e-06
-1.66584e-05
-3.67493e-05
-5.72931e-05
-7.7029e-05
-9.44718e-05
-0.000108135
-0.000116833
-0.000119984
-0.000117771
-0.000111088
-0.000101272
-8.97504e-05
-7.77513e-05
-6.61655e-05
-5.55438e-05
-4.61638e-05
-3.81111e-05
-3.13469e-05
-2.57596e-05
-2.12029e-05
-1.75209e-05
-1.45649e-05
-1.22009e-05
-1.03132e-05
-8.80469e-06
-7.59574e-06
-6.622e-06
-5.83216e-06
-5.18574e-06
-4.65105e-06
-4.20342e-06
-3.82369e-06
-3.497e-06
-3.21191e-06
-2.95961e-06
-2.73338e-06
-2.52805e-06
-2.33964e-06
-2.16505e-06
-2.00181e-06
-1.84805e-06
-1.70231e-06
-1.56355e-06
-1.43098e-06
-1.30399e-06
-1.18205e-06
-1.0647e-06
-9.51521e-07
-8.4215e-07
-7.36293e-07
-6.33694e-07
-5.34101e-07
-4.37229e-07
-3.42716e-07
-2.50168e-07
-1.58646e-07
-7.31543e-08
9.40435e-05
9.40039e-05
9.39014e-05
9.37339e-05
9.34945e-05
9.31674e-05
9.27308e-05
9.21557e-05
9.14047e-05
9.04294e-05
8.91675e-05
8.754e-05
8.54477e-05
8.27681e-05
7.9352e-05
7.50217e-05
6.95716e-05
6.27731e-05
5.43856e-05
4.41776e-05
3.19605e-05
1.76357e-05
1.25676e-06
-1.6901e-05
-3.62761e-05
-5.59854e-05
-7.48455e-05
-9.14815e-05
-0.000104533
-0.000112923
-0.000116125
-0.0001143
-0.000108251
-9.91872e-05
-8.84146e-05
-7.70768e-05
-6.60228e-05
-5.57951e-05
-4.6683e-05
-3.87928e-05
-3.21084e-05
-2.65403e-05
-2.1961e-05
-1.82301e-05
-1.52103e-05
-1.2776e-05
-1.08173e-05
-9.24084e-06
-7.96908e-06
-6.93882e-06
-6.09912e-06
-5.40941e-06
-4.8376e-06
-4.35845e-06
-3.95218e-06
-3.60333e-06
-3.29982e-06
-3.0323e-06
-2.79352e-06
-2.5779e-06
-2.38106e-06
-2.19956e-06
-2.0307e-06
-1.87235e-06
-1.72287e-06
-1.58106e-06
-1.44597e-06
-1.31689e-06
-1.19319e-06
-1.07436e-06
-9.59897e-07
-8.49409e-07
-7.42544e-07
-6.39003e-07
-5.385e-07
-4.40725e-07
-3.45307e-07
-2.51856e-07
-1.5946e-07
-7.32656e-08
9.38864e-05
9.38412e-05
9.37241e-05
9.35335e-05
9.32623e-05
9.28941e-05
9.24056e-05
9.17669e-05
9.09395e-05
8.98738e-05
8.85069e-05
8.67597e-05
8.45341e-05
8.17099e-05
7.81428e-05
7.36628e-05
6.80758e-05
6.11696e-05
5.27248e-05
4.25365e-05
3.04458e-05
1.63845e-05
4.31452e-07
-1.71263e-05
-3.5739e-05
-5.45674e-05
-7.25103e-05
-8.83073e-05
-0.000100725
-0.000108797
-0.00011205
-0.000110623
-0.000105227
-9.69433e-05
-8.69553e-05
-7.63174e-05
-6.58327e-05
-5.60321e-05
-4.72147e-05
-3.95066e-05
-3.29152e-05
-2.73739e-05
-2.27751e-05
-1.8995e-05
-1.59089e-05
-1.34004e-05
-1.13659e-05
-9.71639e-06
-8.37683e-06
-7.28532e-06
-6.39145e-06
-5.65459e-06
-5.04227e-06
-4.52869e-06
-4.09342e-06
-3.72031e-06
-3.39665e-06
-3.11247e-06
-2.86e-06
-2.63313e-06
-2.42708e-06
-2.23807e-06
-2.06309e-06
-1.89976e-06
-1.74625e-06
-1.60114e-06
-1.46335e-06
-1.33203e-06
-1.20646e-06
-1.08605e-06
-9.70237e-07
-8.58567e-07
-7.50638e-07
-6.46105e-07
-5.44645e-07
-4.4592e-07
-3.49548e-07
-2.55137e-07
-1.61762e-07
-7.45776e-08
9.3717e-05
9.36657e-05
9.35332e-05
9.3318e-05
9.3013e-05
9.26009e-05
9.20573e-05
9.13512e-05
9.04427e-05
8.92815e-05
8.78039e-05
8.59309e-05
8.35657e-05
8.0591e-05
7.68676e-05
7.2234e-05
6.65087e-05
5.94964e-05
5.10002e-05
4.08422e-05
2.88937e-05
1.51166e-05
-3.86777e-07
-1.73197e-05
-3.51471e-05
-5.3077e-05
-7.00918e-05
-8.50457e-05
-9.68303e-05
-0.000104584
-0.000107884
-0.00010685
-0.000102104
-9.46034e-05
-8.54099e-05
-7.54886e-05
-6.55936e-05
-5.62411e-05
-4.77374e-05
-4.0227e-05
-3.37405e-05
-2.82338e-05
-2.36202e-05
-1.97929e-05
-1.66404e-05
-1.40563e-05
-1.19438e-05
-1.02184e-05
-8.80799e-06
-7.65224e-06
-6.70134e-06
-5.9147e-06
-5.25952e-06
-4.70942e-06
-4.24332e-06
-3.84439e-06
-3.49925e-06
-3.1973e-06
-2.93016e-06
-2.69124e-06
-2.47532e-06
-2.27823e-06
-2.09666e-06
-1.92797e-06
-1.77008e-06
-1.6214e-06
-1.48067e-06
-1.34691e-06