/*--------------------------------*- C++ -*----------------------------------*\
| =========                 |                                                 |
| \\      /  F ield         | OpenFOAM: The Open Source CFD Toolbox           |
|  \\    /   O peration     | Version:  2512                                  |
|   \\  /    A nd           | Website:  www.openfoam.com                      |
|    \\/     M anipulation  |                                                 |
\*---------------------------------------------------------------------------*/
FoamFile
{
    version     2.0;
    format      ascii;
    arch        "LSB;label=32;scalar=64";
    class       volScalarField;
    location    "100";
    object      p;
}
// * * * * * * * * * * * * * * * * * * * * * * * * * * * * * * * * * * * * * //

dimensions      [0 2 -2 0 0 0 0];

internalField   nonuniform List<scalar> 
229904
(
5.89193e-05
5.88289e-05
5.85987e-05
5.82289e-05
5.7713e-05
5.70301e-05
5.61511e-05
5.50418e-05
5.36618e-05
5.19632e-05
4.98909e-05
4.73823e-05
4.43685e-05
4.07754e-05
3.65264e-05
3.15469e-05
2.57696e-05
1.91431e-05
1.1641e-05
3.27346e-06
-5.90081e-06
-1.57616e-05
-2.6118e-05
-3.67036e-05
-4.71811e-05
-5.71561e-05
-6.62047e-05
-7.39098e-05
-7.99068e-05
-8.39261e-05
-8.58303e-05
-8.56329e-05
-8.34947e-05
-7.9698e-05
-7.46045e-05
-6.86076e-05
-6.2089e-05
-5.53868e-05
-4.87768e-05
-4.24668e-05
-3.65996e-05
-3.12605e-05
-2.64888e-05
-2.22885e-05
-1.86384e-05
-1.55012e-05
-1.28301e-05
-1.05745e-05
-8.68344e-06
-7.1081e-06
-5.80341e-06
-4.72891e-06
-3.84906e-06
-3.13319e-06
-2.55516e-06
-2.09279e-06
-1.72727e-06
-1.44249e-06
-1.22458e-06
-1.06145e-06
-9.42537e-07
-8.58481e-07
-8.00981e-07
-7.62565e-07
-7.36508e-07
-7.16772e-07
-6.98061e-07
-6.75959e-07
-6.4706e-07
-6.09171e-07
-5.61346e-07
-5.03979e-07
-4.38635e-07
-3.67957e-07
-2.95299e-07
-2.24446e-07
-1.59119e-07
-1.02691e-07
-5.77137e-08
-2.9332e-08
5.89464e-05
5.88567e-05
5.86288e-05
5.82624e-05
5.77513e-05
5.70745e-05
5.62031e-05
5.5103e-05
5.37338e-05
5.20477e-05
4.99896e-05
4.74967e-05
4.44996e-05
4.09235e-05
3.66911e-05
3.17263e-05
2.59601e-05
1.93389e-05
1.18337e-05
3.45203e-06
-5.74989e-06
-1.56538e-05
-2.60696e-05
-3.673e-05
-4.72941e-05
-5.73619e-05
-6.65011e-05
-7.42851e-05
-8.03395e-05
-8.43874e-05
-8.62878e-05
-8.60552e-05
-8.3856e-05
-7.99815e-05
-7.48032e-05
-6.87237e-05
-6.21315e-05
-5.53687e-05
-4.87127e-05
-4.23708e-05
-3.64839e-05
-3.11356e-05
-2.63626e-05
-2.21666e-05
-1.85247e-05
-1.53978e-05
-1.2738e-05
-1.0494e-05
-8.61411e-06
-7.04918e-06
-5.75394e-06
-4.68783e-06
-3.81527e-06
-3.10565e-06
-2.53291e-06
-2.07496e-06
-1.71307e-06
-1.4312e-06
-1.21554e-06
-1.05405e-06
-9.36223e-07
-8.52783e-07
-7.95516e-07
-7.5706e-07
-7.30801e-07
-7.10808e-07
-6.91892e-07
-6.69709e-07
-6.40927e-07
-6.03374e-07
-5.56131e-07
-4.99557e-07
-4.3519e-07
-3.65589e-07
-2.94036e-07
-2.24208e-07
-1.59729e-07
-1.03853e-07
-5.90053e-08
-2.99292e-08
5.89997e-05
5.89117e-05
5.86881e-05
5.83286e-05
5.78269e-05
5.71621e-05
5.63058e-05
5.52238e-05
5.3876e-05
5.22148e-05
5.01847e-05
4.77226e-05
4.47585e-05
4.12164e-05
3.7017e-05
3.20817e-05
2.63379e-05
1.97277e-05
1.2217e-05
3.80793e-06
-5.44826e-06
-1.54373e-05
-2.59707e-05
-3.67793e-05
-4.75158e-05
-5.77686e-05
-6.70888e-05
-7.50305e-05
-8.11999e-05
-8.53054e-05
-8.71985e-05
-8.68956e-05
-8.45748e-05
-8.05448e-05
-7.51974e-05
-6.89535e-05
-6.2215e-05
-5.5332e-05
-4.85847e-05
-4.21796e-05
-3.62542e-05
-3.08877e-05
-2.61122e-05
-2.19249e-05
-1.82991e-05
-1.51926e-05
-1.25554e-05
-1.03342e-05
-8.47638e-06
-6.93202e-06
-5.65545e-06
-4.6059e-06
-3.74778e-06
-3.05056e-06
-2.48835e-06
-2.03925e-06
-1.68468e-06
-1.40875e-06
-1.19773e-06
-1.03969e-06
-9.24219e-07
-8.42194e-07
-7.8557e-07
-7.47184e-07
-7.20628e-07
-7.00175e-07
-6.80819e-07
-6.58378e-07
-6.29638e-07
-5.9251e-07
-5.46106e-07
-4.90772e-07
-4.27981e-07
-3.60186e-07
-2.90521e-07
-2.22491e-07
-1.59536e-07
-1.0471e-07
-6.02218e-08
-3.04976e-08
5.90781e-05
5.89926e-05
5.87754e-05
5.84261e-05
5.79382e-05
5.72912e-05
5.64569e-05
5.54017e-05
5.40855e-05
5.24609e-05
5.04722e-05
4.80559e-05
4.51408e-05
4.16492e-05
3.74991e-05
3.26079e-05
2.68981e-05
2.03051e-05
1.27874e-05
4.33908e-06
-4.99637e-06
-1.51107e-05
-2.58181e-05
-3.6847e-05
-4.78405e-05
-5.83697e-05
-6.7961e-05
-7.61393e-05
-8.24819e-05
-8.6674e-05
-8.85559e-05
-8.81473e-05
-8.56432e-05
-8.13798e-05
-7.57792e-05
-6.92897e-05
-6.23336e-05
-5.52725e-05
-4.83906e-05
-4.18925e-05
-3.59111e-05
-3.05186e-05
-2.57401e-05
-2.15663e-05
-1.79648e-05
-1.4889e-05
-1.22852e-05
-1.0098e-05
-8.27282e-06
-6.7589e-06
-5.50993e-06
-4.48484e-06
-3.64804e-06
-2.96915e-06
-2.42253e-06
-1.98656e-06
-1.64291e-06
-1.37586e-06
-1.17183e-06
-1.01901e-06
-9.07148e-07
-8.27327e-07
-7.71753e-07
-7.33548e-07
-7.06605e-07
-6.85485e-07
-6.65449e-07
-6.42539e-07
-6.13725e-07
-5.7704e-07
-5.31658e-07
-4.7792e-07
-4.17224e-07
-3.51883e-07
-2.84833e-07
-2.19344e-07
-1.58597e-07
-1.05373e-07
-6.15908e-08
-3.13128e-08
5.91798e-05
5.90976e-05
5.88887e-05
5.85525e-05
5.80825e-05
5.74586e-05
5.66531e-05
5.56327e-05
5.43576e-05
5.27807e-05
5.08461e-05
4.84896e-05
4.56388e-05
4.22137e-05
3.81286e-05
3.32962e-05
2.76321e-05
2.10635e-05
1.35387e-05
5.04118e-06
-4.39593e-06
-1.46728e-05
-2.56075e-05
-3.69257e-05
-4.82584e-05
-5.91535e-05
-6.9105e-05
-7.75985e-05
-8.41723e-05
-8.84803e-05
-9.03469e-05
-8.97965e-05
-8.70476e-05
-8.2473e-05
-7.65361e-05
-6.97219e-05
-6.24795e-05
-5.51854e-05
-4.81283e-05
-4.15104e-05
-3.54574e-05
-3.00325e-05
-2.52516e-05
-2.10966e-05
-1.75278e-05
-1.44926e-05
-1.19329e-05
-9.79016e-06
-8.00782e-06
-6.53367e-06
-5.32067e-06
-4.32744e-06
-3.51837e-06
-2.86332e-06
-2.33698e-06
-1.91813e-06
-1.58871e-06
-1.33325e-06
-1.13834e-06
-9.92336e-07
-8.85203e-07
-8.08284e-07
-7.54115e-07
-7.16187e-07
-6.88774e-07
-6.66803e-07
-6.45869e-07
-6.22298e-07
-5.93289e-07
-5.57035e-07
-5.12798e-07
-4.60922e-07
-4.02722e-07
-3.40346e-07
-2.76496e-07
-2.1415e-07
-1.56177e-07
-1.05031e-07
-6.23022e-08
-3.16979e-08
5.93024e-05
5.92242e-05
5.90253e-05
5.87049e-05
5.82566e-05
5.76607e-05
5.68898e-05
5.59115e-05
5.46864e-05
5.31673e-05
5.12985e-05
4.9015e-05
4.62428e-05
4.28991e-05
3.88944e-05
3.41351e-05
2.85289e-05
2.19925e-05
1.44623e-05
5.90818e-06
-3.64976e-06
-1.41225e-05
-2.53338e-05
-3.70063e-05
-4.87566e-05
-6.01048e-05
-7.0504e-05
-7.93909e-05
-8.62537e-05
-9.07068e-05
-9.25542e-05
-9.18257e-05
-8.877e-05
-8.38069e-05
-7.74523e-05
-7.02372e-05
-6.26434e-05
-5.50651e-05
-4.77962e-05
-4.10346e-05
-3.48971e-05
-2.94353e-05
-2.46537e-05
-2.05234e-05
-1.69957e-05
-1.40108e-05
-1.15054e-05
-9.41716e-06
-7.68703e-06
-6.26128e-06
-5.09194e-06
-4.13729e-06
-3.36175e-06
-2.73549e-06
-2.23365e-06
-1.83545e-06
-1.52324e-06
-1.28179e-06
-1.09792e-06
-9.60201e-07
-8.58836e-07
-7.85509e-07
-7.33162e-07
-6.9573e-07
-6.67936e-07
-6.45133e-07
-6.23297e-07
-5.99078e-07
-5.69933e-07
-5.34242e-07
-4.91363e-07
-4.41649e-07
-3.86328e-07
-3.27364e-07
-2.67192e-07
-2.0847e-07
-1.53711e-07
-1.05006e-07
-6.35737e-08
-3.26607e-08
5.9443e-05
5.93693e-05
5.91819e-05
5.88798e-05
5.84564e-05
5.78926e-05
5.71618e-05
5.62319e-05
5.50644e-05
5.36122e-05
5.18196e-05
4.96209e-05
4.69403e-05
4.36921e-05
3.97821e-05
3.51097e-05
2.95735e-05
2.30783e-05
1.55461e-05
6.93083e-06
-2.76317e-06
-1.34603e-05
-2.4992e-05
-3.70785e-05
-4.932e-05
-6.12043e-05
-7.2136e-05
-8.14927e-05
-8.8702e-05
-9.33289e-05
-9.51528e-05
-9.42098e-05
-9.07858e-05
-8.53586e-05
-7.85076e-05
-7.08192e-05
-6.28138e-05
-5.49055e-05
-4.73927e-05
-4.04678e-05
-3.42359e-05
-2.8735e-05
-2.39556e-05
-1.98565e-05
-1.63783e-05
-1.34531e-05
-1.10115e-05
-8.98687e-06
-7.31747e-06
-5.94778e-06
-4.82889e-06
-3.91868e-06
-3.18166e-06
-2.5884e-06
-2.11462e-06
-1.74006e-06
-1.44753e-06
-1.22212e-06
-1.05087e-06
-9.22611e-07
-8.27854e-07
-7.58683e-07
-7.08513e-07
-6.71789e-07
-6.43741e-07
-6.20188e-07
-5.97517e-07
-5.72722e-07
-5.43531e-07
-5.08519e-07
-4.6715e-07
-4.19789e-07
-3.67568e-07
-3.12259e-07
-2.5602e-07
-2.01169e-07
-1.49851e-07
-1.0379e-07
-6.38475e-08
-3.28967e-08
5.95984e-05
5.95297e-05
5.9355e-05
5.90731e-05
5.86773e-05
5.8149e-05
5.74626e-05
5.65866e-05
5.54831e-05
5.41056e-05
5.23981e-05
5.02944e-05
4.77168e-05
4.45766e-05
4.07742e-05
3.62019e-05
3.07478e-05
2.43033e-05
1.67743e-05
8.09655e-06
-1.74432e-06
-1.26888e-05
-2.45781e-05
-3.71311e-05
-4.99308e-05
-6.24283e-05
-7.3973e-05
-8.38731e-05
-9.14845e-05
-9.63137e-05
-9.81097e-05
-9.69163e-05
-9.3064e-05
-8.70996e-05
-7.9678e-05
-7.14497e-05
-6.29789e-05
-5.4701e-05
-4.69181e-05
-3.98147e-05
-3.3482e-05
-2.7942e-05
-2.31692e-05
-1.91081e-05
-1.56876e-05
-1.28308e-05
-1.04615e-05
-8.50859e-06
-6.9073e-06
-5.60027e-06
-4.53757e-06
-3.6767e-06
-2.98235e-06
-2.42558e-06
-1.98278e-06
-1.63436e-06
-1.3636e-06
-1.15595e-06
-9.98713e-07
-8.80993e-07
-7.93665e-07
-7.29268e-07
-6.81753e-07
-6.46126e-07
-6.1816e-07
-5.94159e-07
-5.70929e-07
-5.4581e-07
-5.16798e-07
-4.82663e-07
-4.42976e-07
-3.98111e-07
-3.49109e-07
-2.9755e-07
-2.45314e-07
-1.94379e-07
-1.46529e-07
-1.03129e-07
-6.46938e-08
-3.37033e-08
5.97648e-05
5.97015e-05
5.95405e-05
5.92802e-05
5.8914e-05
5.8424e-05
5.77853e-05
5.69674e-05
5.5933e-05
5.46362e-05
5.3021e-05
5.10205e-05
4.85555e-05
4.55337e-05
4.18506e-05
3.73901e-05
3.20296e-05
2.56458e-05
1.81269e-05
9.38839e-06
-6.05323e-07
-1.18136e-05
-2.409e-05
-3.71534e-05
-5.05694e-05
-6.37494e-05
-7.59808e-05
-8.64931e-05
-9.45595e-05
-9.9618e-05
-0.000101382
-9.99035e-05
-9.55657e-05
-8.89959e-05
-8.09357e-05
-7.21088e-05
-6.31267e-05
-5.44473e-05
-4.63745e-05
-3.90827e-05
-3.26465e-05
-2.70696e-05
-2.23087e-05
-1.82927e-05
-1.49377e-05
-1.2157e-05
-9.86738e-06
-7.9929e-06
-6.46576e-06
-5.22665e-06
-4.2246e-06
-3.41681e-06
-2.76819e-06
-2.25044e-06
-1.84074e-06
-1.5202e-06
-1.27266e-06
-1.08395e-06
-9.41651e-07
-8.35174e-07
-7.55798e-07
-6.96576e-07
-6.52046e-07
-6.17814e-07
-5.90209e-07
-5.6603e-07
-5.42487e-07
-5.17254e-07
-4.88587e-07
-4.55444e-07
-4.17503e-07
-3.75156e-07
-3.29358e-07
-2.81508e-07
-2.33217e-07
-1.86143e-07
-1.41726e-07
-1.01001e-07
-6.42071e-08
-3.35814e-08
5.99383e-05
5.98806e-05
5.97339e-05
5.94962e-05
5.9161e-05
5.8711e-05
5.81223e-05
5.73653e-05
5.64036e-05
5.51917e-05
5.3674e-05
5.17829e-05
4.94376e-05
4.65426e-05
4.29879e-05
3.86494e-05
3.33928e-05
2.70796e-05
1.95791e-05
1.07846e-05
6.37011e-07
-1.08445e-05
-2.35284e-05
-3.71358e-05
-5.1215e-05
-6.51359e-05
-7.81184e-05
-8.93045e-05
-9.7874e-05
-0.000103187
-0.000104914
-0.000103119
-9.8244e-05
-9.10077e-05
-8.22501e-05
-7.27756e-05
-6.32466e-05
-5.41426e-05
-4.57674e-05
-3.82825e-05
-3.17437e-05
-2.61342e-05
-2.13914e-05
-1.74275e-05
-1.4145e-05
-1.14468e-05
-9.24276e-06
-7.45194e-06
-6.00347e-06
-4.83614e-06
-3.89796e-06
-3.14586e-06
-2.54508e-06
-2.06808e-06
-1.69291e-06
-1.40149e-06
-1.17823e-06
-1.00934e-06
-8.82688e-07
-7.8802e-07
-7.17061e-07
-6.63425e-07
-6.22273e-07
-5.89827e-07
-5.62975e-07
-5.38982e-07
-5.15439e-07
-4.90326e-07
-4.62144e-07
-4.3003e-07
-3.93776e-07
-3.53804e-07
-3.11005e-07
-2.66616e-07
-2.22007e-07
-1.78534e-07
-1.37324e-07
-9.91184e-08
-6.39119e-08
-3.37453e-08
6.01148e-05
6.00629e-05
5.99307e-05
5.97161e-05
5.94125e-05
5.90033e-05
5.84657e-05
5.7771e-05
5.68837e-05
5.5759e-05
5.43417e-05
5.25637e-05
5.03427e-05
4.75801e-05
4.41604e-05
3.99517e-05
3.48077e-05
2.85744e-05
2.11012e-05
1.22579e-05
1.96038e-06
-9.79631e-06
-2.28981e-05
-3.70708e-05
-5.18468e-05
-6.65531e-05
-8.03381e-05
-9.22491e-05
-0.000101363
-0.000106952
-0.00010864
-0.000106501
-0.000101043
-9.30898e-05
-8.35882e-05
-7.34297e-05
-6.33298e-05
-5.37882e-05
-4.5106e-05
-3.74289e-05
-3.07917e-05
-2.51556e-05
-2.04374e-05
-1.65318e-05
-1.33274e-05
-1.07166e-05
-8.60212e-06
-6.89825e-06
-5.5311e-06
-4.43763e-06
-3.56489e-06
-2.8696e-06
-2.31745e-06
-1.88176e-06
-1.54157e-06
-1.27963e-06
-1.08094e-06
-9.32068e-07
-8.21203e-07
-7.38436e-07
-6.75983e-07
-6.28061e-07
-5.90485e-07
-5.60099e-07
-5.34324e-07
-5.1085e-07
-4.87608e-07
-4.62844e-07
-4.35277e-07
-4.04224e-07
-3.69596e-07
-3.31867e-07
-2.9189e-07
-2.50772e-07
-2.09667e-07
-1.69665e-07
-1.31607e-07
-9.59762e-08
-6.25746e-08
-3.33256e-08
6.02902e-05
6.0244e-05
6.01262e-05
5.99346e-05
5.96624e-05
5.92938e-05
5.88071e-05
5.81747e-05
5.73618e-05
5.63246e-05
5.50082e-05
5.33442e-05
5.1249e-05
4.86212e-05
4.53403e-05
4.12661e-05
3.6241e-05
3.00954e-05
2.26584e-05
1.37757e-05
3.33656e-06
-8.68972e-06
-2.22092e-05
-3.69546e-05
-5.24445e-05
-6.79634e-05
-8.2586e-05
-9.52591e-05
-0.000104948
-0.00011083
-0.000112477
-0.000109973
-0.0001039
-9.51922e-05
-8.49153e-05
-7.40519e-05
-6.33707e-05
-5.33895e-05
-4.44037e-05
-3.65407e-05
-2.98125e-05
-2.41569e-05
-1.94697e-05
-1.56276e-05
-1.25052e-05
-9.9847e-06
-7.96175e-06
-6.34618e-06
-5.06122e-06
-4.04208e-06
-3.23493e-06
-2.59637e-06
-2.09263e-06
-1.69801e-06
-1.3926e-06
-1.15998e-06
-9.85737e-07
-8.5678e-07
-7.61574e-07
-6.9059e-07
-6.3657e-07
-5.94375e-07
-5.60491e-07
-5.32372e-07
-5.07935e-07
-4.85243e-07
-4.625e-07
-4.38175e-07
-4.11177e-07
-3.80994e-07
-3.47676e-07
-3.11776e-07
-2.74146e-07
-2.35802e-07
-1.97724e-07
-1.60768e-07
-1.25525e-07
-9.22524e-08
-6.0606e-08
-3.24851e-08
6.04604e-05
6.04196e-05
6.03158e-05
6.01464e-05
5.99047e-05
5.95757e-05
5.91385e-05
5.85665e-05
5.78262e-05
5.68745e-05
5.56569e-05
5.41051e-05
5.21342e-05
4.96402e-05
4.64978e-05
4.25596e-05
3.76567e-05
3.16043e-05
2.42114e-05
1.52998e-05
4.73138e-06
-7.5516e-06
-2.14771e-05
-3.67877e-05
-5.299e-05
-6.93282e-05
-8.48026e-05
-9.82566e-05
-0.00010854
-0.000114725
-0.00011633
-0.000113449
-0.000106741
-9.72608e-05
-8.61967e-05
-7.46253e-05
-6.33678e-05
-5.29566e-05
-4.36787e-05
-3.5641e-05
-2.88314e-05
-2.31639e-05
-1.85131e-05
-1.47379e-05
-1.16991e-05
-9.26924e-06
-7.33725e-06
-5.80884e-06
-4.60463e-06
-3.65819e-06
-2.91487e-06
-2.33126e-06
-1.87426e-06
-1.51922e-06
-1.2473e-06
-1.04297e-06
-8.92299e-07
-7.82513e-07
-7.02332e-07
-6.4261e-07
-5.96649e-07
-5.59986e-07
-5.29793e-07
-5.04114e-07
-4.81311e-07
-4.59751e-07
-4.37845e-07
-4.14224e-07
-3.87951e-07
-3.58676e-07
-3.26594e-07
-2.92368e-07
-2.56887e-07
-2.21115e-07
-1.85897e-07
-1.51892e-07
-1.19468e-07
-8.86772e-08
-5.90232e-08
-3.2268e-08
6.06212e-05
6.05856e-05
6.0495e-05
6.03466e-05
6.01337e-05
5.9842e-05
5.94516e-05
5.8937e-05
5.82655e-05
5.73951e-05
5.62717e-05
5.4827e-05
5.29754e-05
5.06105e-05
4.76028e-05
4.37979e-05
3.90167e-05
3.30599e-05
2.57174e-05
1.67875e-05
6.10517e-06
-6.41482e-06
-2.07236e-05
-3.65754e-05
-5.34684e-05
-7.06087e-05
-8.69245e-05
-0.000101156
-0.000112034
-0.000118527
-0.000120091
-0.000116831
-0.000109487
-9.9239e-05
-8.73984e-05
-7.51367e-05
-6.3324e-05
-5.25047e-05
-4.29539e-05
-3.4757e-05
-2.78773e-05
-2.22054e-05
-1.7595e-05
-1.38879e-05
-1.0932e-05
-8.59049e-06
-6.74649e-06
-5.30192e-06
-4.17504e-06
-3.29796e-06
-2.61529e-06
-2.08365e-06
-1.67069e-06
-1.35288e-06
-1.11251e-06
-9.34845e-07
-8.06408e-07
-7.14639e-07
-6.48478e-07
-5.99159e-07
-5.6056e-07
-5.28916e-07
-5.0209e-07
-4.78691e-07
-4.57477e-07
-4.37049e-07
-4.15957e-07
-3.92934e-07
-3.67163e-07
-3.38441e-07
-3.0712e-07
-2.74001e-07
-2.40046e-07
-2.06214e-07
-1.73258e-07
-1.41677e-07
-1.11653e-07
-8.30651e-08
-5.53397e-08
-3.03297e-08
6.07689e-05
6.07381e-05
6.06596e-05
6.05304e-05
6.03438e-05
6.00862e-05
5.97388e-05
5.92769e-05
5.86687e-05
5.78731e-05
5.68367e-05
5.54913e-05
5.37504e-05
5.15061e-05
4.86249e-05
4.49465e-05
4.02823e-05
3.44197e-05
2.71313e-05
1.81928e-05
7.414e-06
-5.3174e-06
-1.99759e-05
-3.63289e-05
-5.38688e-05
-7.17679e-05
-8.88868e-05
-0.000103866
-0.000115321
-0.000122113
-0.000123639
-0.000120013
-0.000112056
-0.000101069
-8.84891e-05
-7.55765e-05
-6.32471e-05
-5.20529e-05
-4.22556e-05
-3.39185e-05
-2.69808e-05
-2.13107e-05
-1.67424e-05
-1.31018e-05
-1.02247e-05
-7.96627e-06
-6.20427e-06
-4.83745e-06
-3.78205e-06
-2.96881e-06
-2.34169e-06
-1.85744e-06
-1.48448e-06
-1.20046e-06
-9.88761e-07
-8.35405e-07
-7.27275e-07
-6.51951e-07
-5.98533e-07
-5.58609e-07
-5.2663e-07
-4.9953e-07
-4.75845e-07
-4.54722e-07
-4.35257e-07
-4.16223e-07
-3.96237e-07
-3.74078e-07
-3.49005e-07
-3.2094e-07
-2.90392e-07
-2.58313e-07
-2.25767e-07
-1.93741e-07
-1.62933e-07
-1.33716e-07
-1.06109e-07
-7.98299e-08
-5.41544e-08
-3.07103e-08
6.09e-05
6.08735e-05
6.08056e-05
6.06933e-05
6.05299e-05
6.03025e-05
5.9993e-05
5.95776e-05
5.90255e-05
5.82962e-05
5.73371e-05
5.60801e-05
5.44383e-05
5.23021e-05
4.95352e-05
4.59717e-05
4.14153e-05
3.56415e-05
2.84073e-05
1.94686e-05
8.61156e-06
-4.30082e-06
-1.92655e-05
-3.60638e-05
-5.41848e-05
-7.27721e-05
-9.06255e-05
-0.000106294
-0.000118284
-0.000125357
-0.000126851
-0.000122887
-0.000114363
-0.000102696
-8.94405e-05
-7.594e-05
-6.3149e-05
-5.16245e-05
-4.16134e-05
-3.31575e-05
-2.6174e-05
-2.05107e-05
-1.59837e-05
-1.24051e-05
-9.59999e-06
-7.4165e-06
-5.728e-06
-4.43062e-06
-3.43884e-06
-2.68224e-06
-2.10419e-06
-1.66155e-06
-1.32358e-06
-1.06903e-06
-8.82355e-07
-7.50237e-07
-6.59834e-07
-5.98783e-07
-5.56283e-07
-5.24236e-07
-4.97634e-07
-4.74085e-07
-4.52775e-07
-4.33345e-07
-4.15186e-07
-3.97191e-07
-3.77998e-07
-3.56385e-07
-3.31653e-07
-3.03826e-07
-2.73567e-07
-2.41981e-07
-2.10259e-07
-1.79441e-07
-1.50203e-07
-1.22824e-07
-9.71944e-08
-7.29083e-08
-4.92122e-08
-2.78972e-08
6.10115e-05
6.09885e-05
6.09295e-05
6.08314e-05
6.06876e-05
6.04856e-05
6.0208e-05
5.98318e-05
5.93269e-05
5.86536e-05
5.77598e-05
5.65776e-05
5.502e-05
5.29761e-05
5.0307e-05
4.68427e-05
4.23801e-05
3.66852e-05
2.95017e-05
2.05685e-05
9.65174e-06
-3.40759e-06
-1.86266e-05
-3.57996e-05
-5.44148e-05
-7.35925e-05
-9.20811e-05
-0.000108351
-0.00012081
-0.000128132
-0.0001296
-0.000125342
-0.000116324
-0.000104067
-9.02289e-05
-7.62259e-05
-6.30448e-05
-5.12441e-05
-4.10568e-05
-3.25053e-05
-2.54874e-05
-1.98331e-05
-1.53438e-05
-1.18193e-05
-9.07606e-06
-6.9563e-06
-5.32998e-06
-4.09118e-06
-3.15299e-06
-2.44398e-06
-1.90699e-06
-1.49903e-06
-1.19009e-06
-9.5999e-07
-7.94113e-07
-6.7973e-07
-6.04183e-07
-5.55096e-07
-5.21708e-07
-4.96168e-07
-4.73955e-07
-4.53284e-07
-4.33929e-07
-4.15972e-07
-3.99054e-07
-3.82146e-07
-3.63866e-07
-3.4296e-07
-3.18737e-07
-2.913e-07
-2.61438e-07
-2.30407e-07
-1.99519e-07
-1.69883e-07
-1.42169e-07
-1.1659e-07
-9.29205e-08
-7.06309e-08
-4.88187e-08
-2.89616e-08
6.11009e-05
6.10806e-05
6.10286e-05
6.09417e-05
6.08131e-05
6.0631e-05
6.03783e-05
6.00329e-05
5.95651e-05
5.89358e-05
5.80934e-05
5.69703e-05
5.54791e-05
5.35082e-05
5.0917e-05
4.75321e-05
4.31453e-05
3.75152e-05
3.03751e-05
2.14506e-05
1.04917e-05
-2.67808e-06
-1.80925e-05
-3.55573e-05
-5.45609e-05
-7.42064e-05
-9.32019e-05
-0.000109954
-0.000122794
-0.00013032
-0.000131771
-0.000127279
-0.000117865
-0.000105136
-9.08357e-05
-7.64366e-05
-6.29508e-05
-5.09365e-05
-4.06146e-05
-3.19915e-05
-2.49495e-05
-1.93047e-05
-1.48466e-05
-1.13656e-05
-8.67136e-06
-6.60171e-06
-5.02406e-06
-3.831e-06
-2.93462e-06
-2.26264e-06
-1.75747e-06
-1.3762e-06
-1.08945e-06
-8.7794e-07
-7.27844e-07
-6.26895e-07
-5.62551e-07
-5.22384e-07
-4.95623e-07
-4.74603e-07
-4.55199e-07
-4.36143e-07
-4.17709e-07
-4.00357e-07
-3.83935e-07
-3.6747e-07
-3.49547e-07
-3.28865e-07
-3.04727e-07
-2.77288e-07
-2.47446e-07
-2.16582e-07
-1.8612e-07
-1.57237e-07
-1.30609e-07
-1.06398e-07
-8.42944e-08
-6.36851e-08
-4.36682e-08
-2.58934e-08
6.1166e-05
6.11477e-05
6.11006e-05
6.10214e-05
6.09035e-05
6.07352e-05
6.05e-05
6.0176e-05
5.97341e-05
5.91355e-05
5.8329e-05
5.72472e-05
5.58026e-05
5.3883e-05
5.13466e-05
4.8018e-05
4.36853e-05
3.81022e-05
3.09948e-05
2.20796e-05
1.10952e-05
-2.14712e-06
-1.76931e-05
-3.53568e-05
-5.46277e-05
-7.45975e-05
-9.39468e-05
-0.000111038
-0.000124148
-0.000131821
-0.000133263
-0.000128611
-0.000118922
-0.000105867
-9.1247e-05
-7.65758e-05
-6.28819e-05
-5.0723e-05
-4.03107e-05
-3.16401e-05
-2.45829e-05
-1.89457e-05
-1.45098e-05
-1.10591e-05
-8.39853e-06
-6.36316e-06
-4.81873e-06
-3.65692e-06
-2.78911e-06
-2.14246e-06
-1.65899e-06
-1.29585e-06
-1.02409e-06
-8.2509e-07
-6.85609e-07
-5.93712e-07
-5.36923e-07
-5.02738e-07
-4.80348e-07
-4.622e-07
-4.44449e-07
-4.26213e-07
-4.08145e-07
-3.90996e-07
-3.7477e-07
-3.58535e-07
-3.40845e-07
-3.20351e-07
-2.96339e-07
-2.68996e-07
-2.39295e-07
-2.08711e-07
-1.78753e-07
-1.50651e-07
-1.25084e-07
-1.02173e-07
-8.15351e-08
-6.24653e-08
-4.39289e-08
-2.72529e-08
6.12056e-05
6.11883e-05
6.11439e-05
6.10688e-05
6.09567e-05
6.07959e-05
6.05701e-05
6.02576e-05
5.98296e-05
5.92476e-05
5.84604e-05
5.74008e-05
5.59814e-05
5.40895e-05
5.15829e-05
4.82848e-05
4.39821e-05
3.84255e-05
3.13375e-05
2.243e-05
1.14357e-05
-1.84062e-06
-1.74509e-05
-3.5214e-05
-5.46203e-05
-7.47559e-05
-9.42878e-05
-0.000111556
-0.000124808
-0.000132562
-0.000134005
-0.000129276
-0.000119451
-0.000106233
-9.14536e-05
-7.66469e-05
-6.28499e-05
-5.06196e-05
-4.01628e-05
-3.14691e-05
-2.44047e-05
-1.87715e-05
-1.43468e-05
-1.09113e-05
-8.26751e-06
-6.24912e-06
-4.72111e-06
-3.57478e-06
-2.72118e-06
-2.08712e-06
-1.61439e-06
-1.26007e-06
-9.9546e-07
-8.02263e-07
-6.67589e-07
-5.79693e-07
-5.26127e-07
-4.94327e-07
-4.73434e-07
-4.55941e-07
-4.38158e-07
-4.19433e-07
-4.00657e-07
-3.82771e-07
-3.6589e-07
-3.49115e-07
-3.30986e-07
-3.10126e-07
-2.85808e-07
-2.58235e-07
-2.28421e-07
-1.979e-07
-1.6823e-07
-1.40667e-07
-1.15887e-07
-9.39745e-08
-7.44912e-08
-5.66817e-08
-3.95281e-08
-2.45015e-08
6.12188e-05
6.12017e-05
6.11576e-05
6.10831e-05
6.09717e-05
6.08118e-05
6.05871e-05
6.0276e-05
5.98496e-05
5.92694e-05
5.84844e-05
5.74273e-05
5.60106e-05
5.41219e-05
5.16187e-05
4.83245e-05
4.4026e-05
3.84738e-05
3.13906e-05
2.2488e-05
1.14987e-05
-1.77291e-06
-1.73789e-05
-3.51386e-05
-5.45428e-05
-7.4678e-05
-9.42117e-05
-0.000111484
-0.000124743
-0.000132505
-0.00013396
-0.000129241
-0.000119428
-0.000106221
-9.14507e-05
-7.66519e-05
-6.28608e-05
-5.06344e-05
-4.01798e-05
-3.14871e-05
-2.44228e-05
-1.87894e-05
-1.43641e-05
-1.09278e-05
-8.28309e-06
-6.26372e-06
-4.73481e-06
-3.58776e-06
-2.73365e-06
-2.09924e-06
-1.62617e-06
-1.27142e-06
-1.00622e-06
-8.12317e-07
-6.7686e-07
-5.88145e-07
-5.33725e-07
-5.00996e-07
-4.79055e-07
-4.60373e-07
-4.41278e-07
-4.21174e-07
-4.01029e-07
-3.8186e-07
-3.63838e-07
-3.46095e-07
-3.27181e-07
-3.05714e-07
-2.80966e-07
-2.5314e-07
-2.23263e-07
-1.92876e-07
-1.63548e-07
-1.36529e-07
-1.12475e-07
-9.14332e-08
-7.2916e-08
-5.61108e-08
-3.99061e-08
-2.55446e-08
6.12057e-05
6.11877e-05
6.11416e-05
6.1064e-05
6.09482e-05
6.07827e-05
6.05508e-05
6.02308e-05
5.97937e-05
5.92008e-05
5.84007e-05
5.73263e-05
5.58901e-05
5.39799e-05
5.14539e-05
4.81366e-05
4.38164e-05
3.82466e-05
3.11534e-05
2.22527e-05
1.1283e-05
-1.94521e-06
-1.74785e-05
-3.51321e-05
-5.43968e-05
-7.43656e-05
-9.37203e-05
-0.000110824
-0.000123954
-0.000131653
-0.000133127
-0.000128508
-0.000118853
-0.00010583
-9.12378e-05
-7.65898e-05
-6.29134e-05
-5.07662e-05
-4.03607e-05
-3.16932e-05
-2.46365e-05
-1.89984e-05
-1.45607e-05
-1.11076e-05
-8.44426e-06
-6.40588e-06
-4.85861e-06
-3.69447e-06
-2.82494e-06
-2.17698e-06
-1.69225e-06
-1.32753e-06
-1.05376e-06
-8.52332e-07
-7.10187e-07
-6.15497e-07
-5.55786e-07
-5.18447e-07
-4.92542e-07
-4.70459e-07
-4.48409e-07
-4.25683e-07
-4.03163e-07
-3.8183e-07
-3.61858e-07
-3.42413e-07
-3.2208e-07
-2.99509e-07
-2.7398e-07
-2.45687e-07
-2.15632e-07
-1.85323e-07
-1.56288e-07
-1.29736e-07
-1.06284e-07
-8.59382e-08
-6.81743e-08
-5.21556e-08
-3.67973e-08
-2.34465e-08
6.11667e-05
6.1147e-05
6.10967e-05
6.10124e-05
6.08873e-05
6.07097e-05
6.04626e-05
6.01238e-05
5.9664e-05
5.9044e-05
5.82123e-05
5.71014e-05
5.56241e-05
5.36686e-05
5.10945e-05
4.77284e-05
4.3362e-05
3.77538e-05
3.06368e-05
2.17362e-05
1.08013e-05
-2.34563e-06
-1.77396e-05
-3.51881e-05
-5.41819e-05
-7.3826e-05
-9.28306e-05
-0.000109604
-0.000122476
-0.000130045
-0.000131546
-0.000127109
-0.00011775
-0.000105073
-9.08186e-05
-7.64574e-05
-6.30002e-05
-5.10055e-05
-4.06951e-05
-3.20774e-05
-2.50366e-05
-1.93907e-05
-1.493e-05
-1.14454e-05
-8.74682e-06
-6.67249e-06
-5.09041e-06
-3.89374e-06
-2.99471e-06
-2.32076e-06
-1.8137e-06
-1.43008e-06
-1.14027e-06
-9.25032e-07
-7.70795e-07
-6.6546e-07
-5.96483e-07
-5.5127e-07
-5.18853e-07
-4.91477e-07
-4.65111e-07
-4.38768e-07
-4.13096e-07
-3.8893e-07
-3.66401e-07
-3.44707e-07
-3.22498e-07
-2.9848e-07
-2.71956e-07
-2.43097e-07
-2.12848e-07
-1.82635e-07
-1.53899e-07
-1.27774e-07
-1.04811e-07
-8.49725e-08
-6.77026e-08
-5.21394e-08
-3.7155e-08
-2.39951e-08
6.1103e-05
6.10809e-05
6.10243e-05
6.09297e-05
6.07908e-05
6.0595e-05
6.0325e-05
5.99582e-05
5.94644e-05
5.88039e-05
5.7925e-05
5.67597e-05
5.52212e-05
5.31985e-05
5.05529e-05
4.71145e-05
4.26799e-05
3.7015e-05
2.9863e-05
2.09624e-05
1.0078e-05
-2.95045e-06
-1.8142e-05
-3.52934e-05
-5.38958e-05
-7.30722e-05
-9.15736e-05
-0.000107872
-0.000120376
-0.000127756
-0.000129292
-0.000125108
-0.000116163
-0.000103977
-9.02011e-05
-7.62498e-05
-6.3108e-05
-5.13345e-05
-4.11636e-05
-3.26203e-05
-2.56048e-05
-1.99495e-05
-1.5457e-05
-1.1928e-05
-9.17913e-06
-7.05324e-06
-5.42105e-06
-4.17736e-06
-3.23553e-06
-2.52376e-06
-1.98412e-06
-1.57289e-06
-1.2597e-06
-1.02444e-06
-8.52761e-07
-7.32157e-07
-6.49962e-07
-5.93595e-07
-5.52049e-07
-5.17367e-07
-4.85168e-07
-4.54051e-07
-4.243e-07
-3.96516e-07
-3.70744e-07
-3.4621e-07
-3.21652e-07
-2.95852e-07
-2.68144e-07
-2.3866e-07
-2.08252e-07
-1.78216e-07
-1.49866e-07
-1.24217e-07
-1.01741e-07
-8.23467e-08
-6.54562e-08
-5.0208e-08
-3.551e-08
-2.26719e-08
6.10166e-05
6.09912e-05
6.09263e-05
6.08185e-05
6.06613e-05
6.04419e-05
6.01421e-05
5.97386e-05
5.92005e-05
5.84876e-05
5.75472e-05
5.63116e-05
5.46939e-05
5.25845e-05
4.98472e-05
4.63161e-05
4.17947e-05
3.60584e-05
2.88634e-05
1.99649e-05
9.14784e-06
-3.72671e-06
-1.86581e-05
-3.54304e-05
-5.35364e-05
-7.2123e-05
-8.99929e-05
-0.000105698
-0.000117742
-0.000124887
-0.000126464
-0.000122591
-0.000114158
-0.000102577
-8.93988e-05
-7.59625e-05
-6.3221e-05
-5.1731e-05
-4.17416e-05
-3.32971e-05
-2.63177e-05
-2.0654e-05
-1.61239e-05
-1.25403e-05
-9.7289e-06
-7.53835e-06
-5.84301e-06
-4.53988e-06
-3.54379e-06
-2.78393e-06
-2.20277e-06
-1.75631e-06
-1.41334e-06
-1.15263e-06
-9.58919e-07
-8.19121e-07
-7.20384e-07
-6.50112e-07
-5.97229e-07
-5.53523e-07
-5.14174e-07
-4.77261e-07
-4.42607e-07
-4.10506e-07
-3.80881e-07
-3.52984e-07
-3.25648e-07
-2.97747e-07
-2.68639e-07
-2.38405e-07
-2.0777e-07
-1.77865e-07
-1.49834e-07
-1.24552e-07
-1.02388e-07
-8.31988e-08
-6.63896e-08
-5.11034e-08
-3.62446e-08
-2.30967e-08
6.09098e-05
6.08805e-05
6.08055e-05
6.06817e-05
6.05026e-05
6.02546e-05
5.99189e-05
5.94712e-05
5.88799e-05
5.81039e-05
5.709e-05
5.57702e-05
5.40582e-05
5.18458e-05
4.89999e-05
4.53599e-05
4.07372e-05
3.49187e-05
2.76763e-05
1.87849e-05
8.05236e-06
-4.63546e-06
-1.92559e-05
-3.55798e-05
-5.31034e-05
-7.10029e-05
-8.8142e-05
-0.000103164
-0.000114682
-0.000121557
-0.00012318
-0.000119659
-0.000111808
-0.000100921
-8.84302e-05
-7.55929e-05
-6.3322e-05
-5.21697e-05
-4.23994e-05
-3.40772e-05
-2.7146e-05
-2.14768e-05
-1.69059e-05
-1.32604e-05
-1.03767e-05
-8.11066e-06
-6.34118e-06
-4.96797e-06
-3.90768e-06
-3.09069e-06
-2.46e-06
-1.97137e-06
-1.59267e-06
-1.30149e-06
-1.08147e-06
-9.18858e-07
-8.00526e-07
-7.13802e-07
-6.47501e-07
-5.93107e-07
-5.45299e-07
-5.0157e-07
-4.61209e-07
-4.24157e-07
-3.9018e-07
-3.58542e-07
-3.28167e-07
-2.98016e-07
-2.67466e-07
-2.3652e-07
-2.0575e-07
-1.76091e-07
-1.4849e-07
-1.23655e-07
-1.01846e-07
-8.28653e-08
-6.61089e-08
-5.07431e-08
-3.57215e-08
-2.23673e-08
6.07856e-05
6.07517e-05
6.06652e-05
6.05231e-05
6.03188e-05
6.00381e-05
5.96614e-05
5.91634e-05
5.85115e-05
5.76637e-05
5.65664e-05
5.51512e-05
5.33327e-05
5.10046e-05
4.80373e-05
4.42763e-05
3.95423e-05
3.36354e-05
2.63449e-05
1.74675e-05
6.83672e-06
-5.63519e-06
-1.99025e-05
-3.57231e-05
-5.25994e-05
-6.97416e-05
-8.60813e-05
-0.000100361
-0.00011131
-0.000117895
-0.000119566
-0.000116422
-0.000109196
-9.90595e-05
-8.73193e-05
-7.51423e-05
-6.33964e-05
-5.26258e-05
-4.31074e-05
-3.49295e-05
-2.80591e-05
-2.23899e-05
-1.77779e-05
-1.40666e-05
-1.11043e-05
-8.75529e-06
-6.90367e-06
-5.45247e-06
-4.32048e-06
-3.43945e-06
-2.75302e-06
-2.21678e-06
-1.79769e-06
-1.47211e-06
-1.22251e-06
-1.03436e-06
-8.94149e-07
-7.89062e-07
-7.07749e-07
-6.41354e-07
-5.84022e-07
-5.32619e-07
-4.85873e-07
-4.4333e-07
-4.04573e-07
-3.68857e-07
-3.3518e-07
-3.02573e-07
-2.70415e-07
-2.38618e-07
-2.07581e-07
-1.78024e-07
-1.50683e-07
-1.26093e-07
-1.04403e-07
-8.53624e-08
-6.83676e-08
-5.2611e-08
-3.70645e-08
-2.30303e-08
6.06472e-05
6.06083e-05
6.05091e-05
6.03469e-05
6.01149e-05
5.97984e-05
5.93766e-05
5.88234e-05
5.81051e-05
5.7179e-05
5.59907e-05
5.4472e-05
5.25382e-05
5.00853e-05
4.6988e-05
4.30985e-05
3.82477e-05
3.22502e-05
2.49141e-05
1.60595e-05
5.54671e-06
-6.68493e-06
-2.05667e-05
-3.5845e-05
-5.20311e-05
-6.83731e-05
-8.38748e-05
-9.73816e-05
-0.000107742
-0.000114027
-0.000115748
-0.000112991
-0.000106409
-9.70498e-05
-8.60946e-05
-7.4616e-05
-6.34324e-05
-5.30764e-05
-4.38362e-05
-3.58218e-05
-2.90247e-05
-2.33622e-05
-1.87115e-05
-1.49332e-05
-1.18888e-05
-9.45189e-06
-7.51254e-06
-5.97759e-06
-4.76825e-06
-3.8178e-06
-3.07066e-06
-2.48232e-06
-2.01892e-06
-1.65559e-06
-1.37362e-06
-1.1576e-06
-9.93554e-07
-8.6844e-07
-7.70693e-07
-6.91094e-07
-6.23245e-07
-5.63386e-07
-5.09668e-07
-4.61222e-07
-4.17419e-07
-3.7747e-07
-3.40417e-07
-3.05335e-07
-2.71581e-07
-2.38958e-07
-2.07684e-07
-1.78255e-07
-1.51195e-07
-1.26866e-07
-1.05306e-07
-8.62206e-08
-6.90105e-08
-5.29079e-08
-3.69477e-08
-2.24822e-08
6.04983e-05
6.04541e-05
6.03414e-05
6.01577e-05
5.98963e-05
5.95416e-05
5.9072e-05
5.84602e-05
5.76716e-05
5.66627e-05
5.53785e-05
5.37511e-05
5.16966e-05
4.91138e-05
4.58818e-05
4.18606e-05
3.68918e-05
3.08053e-05
2.34288e-05
1.46067e-05
4.22606e-06
-7.74679e-06
-2.12213e-05
-3.59345e-05
-5.1409e-05
-6.6934e-05
-8.15872e-05
-9.4317e-05
-0.000104089
-0.000110075
-0.000111844
-0.00010947
-0.00010353
-9.49496e-05
-8.47882e-05
-7.4024e-05
-6.34232e-05
-5.35028e-05
-4.45599e-05
-3.67248e-05
-3.00126e-05
-2.43648e-05
-1.96798e-05
-1.58361e-05
-1.27093e-05
-1.01827e-05
-8.15308e-06
-6.53145e-06
-5.24167e-06
-4.21873e-06
-3.40792e-06
-2.76474e-06
-2.25463e-06
-1.85153e-06
-1.53553e-06
-1.29032e-06
-1.10135e-06
-9.55278e-07
-8.40276e-07
-7.46751e-07
-6.6778e-07
-5.98993e-07
-5.37969e-07
-4.83413e-07
-4.34455e-07
-3.90222e-07