/*--------------------------------*- C++ -*----------------------------------*\
| =========                 |                                                 |
| \\      /  F ield         | OpenFOAM: The Open Source CFD Toolbox           |
|  \\    /   O peration     | Version:  2512                                  |
|   \\  /    A nd           | Website:  www.openfoam.com                      |
|    \\/     M anipulation  |                                                 |
\*---------------------------------------------------------------------------*/
FoamFile
{
    version     2.0;
    format      ascii;
    arch        "LSB;label=32;scalar=64";
    class       volScalarField;
    location    "100";
    object      p;
}
// * * * * * * * * * * * * * * * * * * * * * * * * * * * * * * * * * * * * * //

dimensions      [0 2 -2 0 0 0 0];

internalField   nonuniform List<scalar> 
240106
(
3.91186e-05
3.90641e-05
3.89244e-05
3.87e-05
3.83874e-05
3.79742e-05
3.74429e-05
3.67726e-05
3.59385e-05
3.49108e-05
3.3655e-05
3.21319e-05
3.02979e-05
2.81061e-05
2.55081e-05
2.24563e-05
1.89073e-05
1.48274e-05
1.0198e-05
5.02346e-06
-6.61542e-07
-6.78445e-06
-1.3229e-05
-1.98322e-05
-2.63867e-05
-3.26494e-05
-3.83574e-05
-4.32519e-05
-4.71051e-05
-4.97482e-05
-5.10941e-05
-5.11491e-05
-5.00105e-05
-4.78507e-05
-4.48905e-05
-4.13699e-05
-3.75215e-05
-3.35508e-05
-2.96255e-05
-2.58718e-05
-2.23766e-05
-1.91925e-05
-1.63438e-05
-1.38337e-05
-1.16502e-05
-9.77162e-06
-8.17066e-06
-6.81735e-06
-5.68134e-06
-4.73341e-06
-3.94632e-06
-3.2955e-06
-2.75915e-06
-2.31836e-06
-1.95681e-06
-1.66059e-06
-1.41782e-06
-1.21842e-06
-1.05388e-06
-9.17089e-07
-8.02172e-07
-7.04384e-07
-6.19919e-07
-5.45776e-07
-4.79595e-07
-4.19567e-07
-3.64331e-07
-3.12952e-07
-2.64865e-07
-2.19862e-07
-1.78021e-07
-1.39657e-07
-1.05217e-07
-7.51999e-08
-5.00483e-08
-3.00845e-08
-1.54426e-08
-6.03894e-09
-1.53676e-09
-1.26422e-09
3.91342e-05
3.90801e-05
3.89418e-05
3.87195e-05
3.84098e-05
3.80003e-05
3.74736e-05
3.6809e-05
3.59814e-05
3.49614e-05
3.37143e-05
3.22007e-05
3.03769e-05
2.81956e-05
2.56078e-05
2.2565e-05
1.90229e-05
1.49463e-05
1.03152e-05
5.13212e-06
-5.69804e-07
-6.71928e-06
-1.32005e-05
-1.985e-05
-2.64582e-05
-3.27784e-05
-3.85426e-05
-4.34861e-05
-4.7375e-05
-5.0036e-05
-5.13798e-05
-5.14132e-05
-5.02372e-05
-4.80295e-05
-4.50172e-05
-4.14461e-05
-3.75526e-05
-3.35449e-05
-2.95913e-05
-2.58179e-05
-2.23106e-05
-1.91206e-05
-1.62707e-05
-1.37628e-05
-1.15839e-05
-9.71125e-06
-8.1168e-06
-6.7701e-06
-5.64048e-06
-4.69847e-06
-3.91674e-06
-3.27064e-06
-2.73839e-06
-2.3011e-06
-1.94253e-06
-1.64881e-06
-1.40813e-06
-1.21046e-06
-1.04732e-06
-9.1164e-07
-7.976e-07
-7.00495e-07
-6.1657e-07
-5.42866e-07
-4.77067e-07
-4.1739e-07
-3.625e-07
-3.11469e-07
-2.63739e-07
-2.19096e-07
-1.7761e-07
-1.39582e-07
-1.05446e-07
-7.56829e-08
-5.07199e-08
-3.08646e-08
-1.62388e-08
-6.75022e-09
-2.0544e-09
-1.53621e-09
3.91648e-05
3.91117e-05
3.8976e-05
3.87579e-05
3.84539e-05
3.80518e-05
3.75342e-05
3.68806e-05
3.60661e-05
3.50612e-05
3.38312e-05
3.23365e-05
3.05329e-05
2.83725e-05
2.5805e-05
2.27804e-05
1.92521e-05
1.51824e-05
1.05481e-05
5.34845e-06
-3.8669e-07
-6.58855e-06
-1.31424e-05
-1.98836e-05
-2.65987e-05
-3.30334e-05
-3.891e-05
-4.39513e-05
-4.79118e-05
-5.06089e-05
-5.19484e-05
-5.19387e-05
-5.06878e-05
-4.83846e-05
-4.52686e-05
-4.15966e-05
-3.76137e-05
-3.35324e-05
-2.95228e-05
-2.57105e-05
-2.21793e-05
-1.89776e-05
-1.61256e-05
-1.36223e-05
-1.14524e-05
-9.59147e-06
-8.00993e-06
-6.67636e-06
-5.55941e-06
-4.62918e-06
-3.85809e-06
-3.22138e-06
-2.69728e-06
-2.26697e-06
-1.91432e-06
-1.62559e-06
-1.38909e-06
-1.19486e-06
-1.03452e-06
-9.01062e-07
-7.88761e-07
-6.93003e-07
-6.10129e-07
-5.37274e-07
-4.72199e-07
-4.13182e-07
-3.58927e-07
-3.08532e-07
-2.61447e-07
-2.17456e-07
-1.76615e-07
-1.39206e-07
-1.05634e-07
-7.63527e-08
-5.17587e-08
-3.21322e-08
-1.75702e-08
-7.96186e-09
-2.95351e-09
-1.97064e-09
3.92097e-05
3.91581e-05
3.90263e-05
3.88144e-05
3.85188e-05
3.81274e-05
3.76233e-05
3.6986e-05
3.61908e-05
3.52082e-05
3.40035e-05
3.25368e-05
3.07633e-05
2.86339e-05
2.60967e-05
2.30992e-05
1.95919e-05
1.5533e-05
1.08946e-05
5.67109e-06
-1.12666e-07
-6.39172e-06
-1.30531e-05
-1.99306e-05
-2.68049e-05
-3.3411e-05
-3.94558e-05
-4.4644e-05
-4.87122e-05
-5.14633e-05
-5.27963e-05
-5.27215e-05
-5.13578e-05
-4.8911e-05
-4.56395e-05
-4.1817e-05
-3.77008e-05
-3.35105e-05
-2.94184e-05
-2.5549e-05
-2.1983e-05
-1.87646e-05
-1.59098e-05
-1.34138e-05
-1.12576e-05
-9.41417e-06
-7.85189e-06
-6.53787e-06
-5.43975e-06
-4.527e-06
-3.77167e-06
-3.14886e-06
-2.63681e-06
-2.21682e-06
-1.87294e-06
-1.5916e-06
-1.36127e-06
-1.17213e-06
-1.0159e-06
-8.85702e-07
-7.75937e-07
-6.82133e-07
-6.00778e-07
-5.29142e-07
-4.651e-07
-4.07017e-07
-3.53658e-07
-3.04155e-07
-2.57972e-07
-2.14889e-07
-1.7495e-07
-1.38409e-07
-1.05635e-07
-7.70412e-08
-5.29842e-08
-3.3704e-08
-1.92629e-08
-9.52282e-09
-4.11634e-09
-2.48071e-09
3.92678e-05
3.92182e-05
3.90915e-05
3.88875e-05
3.86028e-05
3.82255e-05
3.77388e-05
3.71227e-05
3.63525e-05
3.53991e-05
3.42274e-05
3.27974e-05
3.10632e-05
2.89745e-05
2.64773e-05
2.3516e-05
2.00369e-05
1.5993e-05
1.13506e-05
6.09698e-06
2.50735e-07
-6.12854e-06
-1.29305e-05
-1.99871e-05
-2.70715e-05
-3.39046e-05
-4.01728e-05
-4.55568e-05
-4.97685e-05
-5.25917e-05
-5.39156e-05
-5.37534e-05
-5.22386e-05
-4.96002e-05
-4.6122e-05
-4.21005e-05
-3.7809e-05
-3.34761e-05
-2.92768e-05
-2.53337e-05
-2.17231e-05
-1.8484e-05
-1.56265e-05
-1.31406e-05
-1.10029e-05
-9.18274e-06
-7.64588e-06
-6.35756e-06
-5.28412e-06
-4.39422e-06
-3.65948e-06
-3.05479e-06
-2.55844e-06
-2.15189e-06
-1.81941e-06
-1.5477e-06
-1.3254e-06
-1.14286e-06
-9.91972e-07
-8.65999e-07
-7.59512e-07
-6.68231e-07
-5.88837e-07
-5.18774e-07
-4.56065e-07
-3.99184e-07
-3.46969e-07
-2.98594e-07
-2.53541e-07
-2.11592e-07
-1.7277e-07
-1.37301e-07
-1.05513e-07
-7.77717e-08
-5.43821e-08
-3.55376e-08
-2.12595e-08
-1.13784e-08
-5.51036e-09
-3.08652e-09
3.93377e-05
3.92905e-05
3.91698e-05
3.89755e-05
3.87039e-05
3.83435e-05
3.7878e-05
3.72875e-05
3.65477e-05
3.56296e-05
3.44981e-05
3.31126e-05
3.14266e-05
2.93878e-05
2.69399e-05
2.40234e-05
2.05799e-05
1.6556e-05
1.19103e-05
6.62202e-06
7.01341e-07
-5.79888e-06
-1.27719e-05
-2.00479e-05
-2.73911e-05
-3.45052e-05
-4.10514e-05
-4.66795e-05
-5.10708e-05
-5.3984e-05
-5.5296e-05
-5.50235e-05
-5.33192e-05
-5.04414e-05
-4.67064e-05
-4.2439e-05
-3.79323e-05
-3.34256e-05
-2.90964e-05
-2.50649e-05
-2.14018e-05
-1.8139e-05
-1.52796e-05
-1.28071e-05
-1.06927e-05
-8.90142e-06
-7.39588e-06
-6.13903e-06
-5.09573e-06
-4.23368e-06
-3.52395e-06
-2.94125e-06
-2.46391e-06
-2.07361e-06
-1.75494e-06
-1.49485e-06
-1.28225e-06
-1.1077e-06
-9.63242e-07
-8.42352e-07
-7.39807e-07
-6.51562e-07
-5.7453e-07
-5.06368e-07
-4.45271e-07
-3.89838e-07
-3.38991e-07
-2.91952e-07
-2.48223e-07
-2.07587e-07
-1.70052e-07
-1.35809e-07
-1.05146e-07
-7.83726e-08
-5.57402e-08
-3.73904e-08
-2.33023e-08
-1.32771e-08
-6.91963e-09
-3.6602e-09
3.94176e-05
3.93732e-05
3.92594e-05
3.90761e-05
3.88197e-05
3.84788e-05
3.80375e-05
3.74765e-05
3.67718e-05
3.58944e-05
3.48094e-05
3.34757e-05
3.18456e-05
2.98654e-05
2.74754e-05
2.46123e-05
2.12117e-05
1.72131e-05
1.25661e-05
7.24006e-06
1.23535e-06
-5.40366e-06
-1.25749e-05
-2.01074e-05
-2.77553e-05
-3.5202e-05
-4.20786e-05
-4.79984e-05
-5.26046e-05
-5.56255e-05
-5.69225e-05
-5.65168e-05
-5.45846e-05
-5.14203e-05
-4.73799e-05
-4.28221e-05
-3.80634e-05
-3.33546e-05
-2.88761e-05
-2.47441e-05
-2.10222e-05
-1.77341e-05
-1.48744e-05
-1.24189e-05
-1.03327e-05
-8.5757e-06
-7.10697e-06
-5.88693e-06
-4.87872e-06
-4.04898e-06
-3.3682e-06
-2.81088e-06
-2.35545e-06
-1.98386e-06
-1.68106e-06
-1.43436e-06
-1.23293e-06
-1.06756e-06
-9.30509e-07
-8.15459e-07
-7.17444e-07
-6.32689e-07
-5.58382e-07
-4.92419e-07
-4.33187e-07
-3.79427e-07
-3.30146e-07
-2.84618e-07
-2.42369e-07
-2.03183e-07
-1.67054e-07
-1.34143e-07
-1.0469e-07
-7.89519e-08
-5.71224e-08
-3.92914e-08
-2.53984e-08
-1.52213e-08
-8.36186e-09
-4.25735e-09
3.95055e-05
3.94641e-05
3.9358e-05
3.91869e-05
3.89472e-05
3.86279e-05
3.82136e-05
3.76852e-05
3.70195e-05
3.61875e-05
3.51544e-05
3.38786e-05
3.23114e-05
3.03971e-05
2.8073e-05
2.52711e-05
2.19207e-05
1.7953e-05
1.33077e-05
7.94288e-06
1.84721e-06
-4.945e-06
-1.23379e-05
-2.01596e-05
-2.81537e-05
-3.5981e-05
-4.32381e-05
-4.94951e-05
-5.43506e-05
-5.74964e-05
-5.87752e-05
-5.82134e-05
-5.60154e-05
-5.25192e-05
-4.81274e-05
-4.32383e-05
-3.81946e-05
-3.32596e-05
-2.86155e-05
-2.43736e-05
-2.05889e-05
-1.72753e-05
-1.44176e-05
-1.19832e-05
-9.92983e-06
-8.21217e-06
-6.78522e-06
-5.60667e-06
-4.63785e-06
-3.84425e-06
-3.19575e-06
-2.66665e-06
-2.23552e-06
-1.88466e-06
-1.59945e-06
-1.36757e-06
-1.17852e-06
-1.02333e-06
-8.94476e-07
-7.85887e-07
-6.92878e-07
-6.11984e-07
-5.40694e-07
-4.77174e-07
-4.20018e-07
-3.6811e-07
-3.20551e-07
-2.76666e-07
-2.36006e-07
-1.9836e-07
-1.63709e-07
-1.32186e-07
-1.03986e-07
-7.931e-08
-5.8296e-08
-4.09835e-08
-2.72783e-08
-1.69448e-08
-9.59865e-09
-4.71163e-09
3.95992e-05
3.9561e-05
3.94632e-05
3.93052e-05
3.90834e-05
3.87872e-05
3.84018e-05
3.79087e-05
3.72849e-05
3.65019e-05
3.5525e-05
3.4312e-05
3.28135e-05
3.09714e-05
2.872e-05
2.59863e-05
2.2693e-05
1.87621e-05
1.41225e-05
8.71956e-06
2.52886e-06
-4.42708e-06
-1.20601e-05
-2.01986e-05
-2.85752e-05
-3.68262e-05
-4.45096e-05
-5.11464e-05
-5.62837e-05
-5.95706e-05
-6.08278e-05
-6.00877e-05
-5.75879e-05
-5.37169e-05
-4.89317e-05
-4.3675e-05
-3.83181e-05
-3.31374e-05
-2.83156e-05
-2.39575e-05
-2.01082e-05
-1.67702e-05
-1.39176e-05
-1.15083e-05
-9.4924e-06
-7.81857e-06
-6.43769e-06
-5.30459e-06
-4.3787e-06
-3.62434e-06
-3.01076e-06
-2.51211e-06
-2.10713e-06
-1.77856e-06
-1.51224e-06
-1.2963e-06
-1.12058e-06
-9.7634e-07
-8.56298e-07
-7.54641e-07
-6.66997e-07
-5.90242e-07
-5.22196e-07
-4.61308e-07
-4.06389e-07
-3.5647e-07
-3.10743e-07
-2.68586e-07
-2.29576e-07
-1.93511e-07
-1.60364e-07
-1.30241e-07
-1.03296e-07
-7.9676e-08
-5.94627e-08
-4.2649e-08
-2.9113e-08
-1.86161e-08
-1.08009e-08
-5.18818e-09
3.96963e-05
3.96614e-05
3.95722e-05
3.94279e-05
3.92247e-05
3.89527e-05
3.85976e-05
3.81413e-05
3.75615e-05
3.68301e-05
3.59123e-05
3.47659e-05
3.33401e-05
3.15752e-05
2.94019e-05
2.67425e-05
2.35123e-05
1.9624e-05
1.49947e-05
9.55618e-06
3.26939e-06
-3.85655e-06
-1.17428e-05
-2.02193e-05
-2.90078e-05
-3.7719e-05
-4.58687e-05
-5.29234e-05
-5.8372e-05
-6.18148e-05
-6.3047e-05
-6.21079e-05
-5.9273e-05
-5.49889e-05
-4.97736e-05
-4.41189e-05
-3.8427e-05
-3.29863e-05
-2.79791e-05
-2.35019e-05
-1.95884e-05
-1.62284e-05
-1.33846e-05
-1.10044e-05
-9.02991e-06
-7.40368e-06
-6.07229e-06
-4.98765e-06
-4.10732e-06
-3.39443e-06
-2.81762e-06
-2.35089e-06
-1.97328e-06
-1.66799e-06
-1.42142e-06
-1.22215e-06
-1.06036e-06
-9.27562e-07
-8.16704e-07
-7.22255e-07
-6.40177e-07
-5.67713e-07
-5.03038e-07
-4.44893e-07
-3.92308e-07
-3.44456e-07
-3.00616e-07
-2.60216e-07
-2.22861e-07
-1.88363e-07
-1.56694e-07
-1.27941e-07
-1.02218e-07
-7.96229e-08
-6.01822e-08
-4.3845e-08
-3.04674e-08
-1.98188e-08
-1.15878e-08
-5.38654e-09
3.97942e-05
3.97628e-05
3.96823e-05
3.95519e-05
3.93677e-05
3.91203e-05
3.8796e-05
3.83774e-05
3.78426e-05
3.7164e-05
3.6307e-05
3.52291e-05
3.38788e-05
3.21942e-05
3.01029e-05
2.75221e-05
2.436e-05
2.05196e-05
1.59057e-05
1.04355e-05
4.05451e-06
-3.2432e-06
-1.13897e-05
-2.02178e-05
-2.94395e-05
-3.86386e-05
-4.72868e-05
-5.4791e-05
-6.0576e-05
-6.41874e-05
-6.53916e-05
-6.42351e-05
-6.10364e-05
-5.6307e-05
-5.06322e-05
-4.45572e-05
-3.85154e-05
-3.28067e-05
-2.7611e-05
-2.30152e-05
-1.90399e-05
-1.56616e-05
-1.28303e-05
-1.04829e-05
-8.55315e-06
-6.97735e-06
-5.69781e-06
-4.66362e-06
-3.83046e-06
-3.16032e-06
-2.62125e-06
-2.1872e-06
-1.83751e-06
-1.55597e-06
-1.32955e-06
-1.1473e-06
-9.99732e-07
-8.78601e-07
-7.77082e-07
-6.89936e-07
-6.13482e-07
-5.45359e-07
-4.84105e-07
-4.28762e-07
-3.78569e-07
-3.32831e-07
-2.909e-07
-2.52249e-07
-2.16514e-07
-1.83528e-07
-1.53272e-07
-1.25821e-07
-1.0126e-07
-7.96393e-08
-6.09351e-08
-4.50548e-08
-3.18361e-08
-2.10614e-08
-1.24678e-08
-5.7439e-09
3.98906e-05
3.98626e-05
3.97907e-05
3.9674e-05
3.95088e-05
3.92858e-05
3.89921e-05
3.86109e-05
3.8121e-05
3.74951e-05
3.66991e-05
3.56902e-05
3.4416e-05
3.28129e-05
3.08055e-05
2.8306e-05
2.52154e-05
2.14272e-05
1.68337e-05
1.13371e-05
4.86638e-06
-2.60028e-06
-1.10075e-05
-2.01924e-05
-2.98583e-05
-3.95628e-05
-4.87311e-05
-5.67078e-05
-6.2848e-05
-6.66377e-05
-6.78113e-05
-6.6423e-05
-6.28384e-05
-5.764e-05
-5.1486e-05
-4.49774e-05
-3.85793e-05
-3.26013e-05
-2.72192e-05
-2.25084e-05
-1.84756e-05
-1.50831e-05
-1.22681e-05
-9.95655e-06
-8.07377e-06
-6.55002e-06
-5.32345e-06
-4.34042e-06
-3.55487e-06
-2.92768e-06
-2.42637e-06
-2.02488e-06
-1.70295e-06
-1.44498e-06
-1.23857e-06
-1.07325e-06
-9.39826e-07
-8.30263e-07
-7.37959e-07
-6.57974e-07
-5.87011e-07
-5.23121e-07
-4.6522e-07
-4.12644e-07
-3.64828e-07
-3.21186e-07
-2.8113e-07
-2.44166e-07
-2.09962e-07
-1.78379e-07
-1.49416e-07
-1.23152e-07
-9.96512e-08
-7.89247e-08
-6.09024e-08
-4.54524e-08
-3.23972e-08
-2.15369e-08
-1.26729e-08
-5.62131e-09
3.99828e-05
3.99581e-05
3.98946e-05
3.97912e-05
3.96442e-05
3.94448e-05
3.91808e-05
3.88359e-05
3.83896e-05
3.78152e-05
3.70786e-05
3.61372e-05
3.49379e-05
3.34155e-05
3.14916e-05
2.90737e-05
2.60563e-05
2.23231e-05
1.77543e-05
1.22371e-05
5.68362e-06
-1.94474e-06
-1.06062e-05
-2.01438e-05
-3.02537e-05
-4.04679e-05
-5.01655e-05
-5.86262e-05
-6.51323e-05
-6.91062e-05
-7.02474e-05
-6.86182e-05
-6.46345e-05
-5.89545e-05
-5.23132e-05
-4.5369e-05
-3.86173e-05
-3.23758e-05
-2.68141e-05
-2.1995e-05
-1.79105e-05
-1.45084e-05
-1.17129e-05
-9.43924e-06
-7.60445e-06
-6.13299e-06
-4.95912e-06
-4.02668e-06
-3.28797e-06
-2.70286e-06
-2.23837e-06
-1.8685e-06
-1.57347e-06
-1.33835e-06
-1.15136e-06
-1.0025e-06
-8.82828e-07
-7.84479e-07
-7.01057e-07
-6.27926e-07
-5.6219e-07
-5.02328e-07
-4.47645e-07
-3.9776e-07
-3.52283e-07
-3.10712e-07
-2.72494e-07
-2.37157e-07
-2.04394e-07
-1.741e-07
-1.46306e-07
-1.21106e-07
-9.8557e-08
-7.86403e-08
-6.1246e-08
-4.62066e-08
-3.33294e-08
-2.24298e-08
-1.33572e-08
-5.98356e-09
4.00686e-05
4.0047e-05
3.99913e-05
3.99003e-05
3.97704e-05
3.95933e-05
3.93572e-05
3.90466e-05
3.86414e-05
3.81156e-05
3.74355e-05
3.65584e-05
3.54306e-05
3.39856e-05
3.21423e-05
2.98042e-05
2.68591e-05
2.31819e-05
1.8641e-05
1.31091e-05
6.4816e-06
-1.29703e-06
-1.01994e-05
-2.00756e-05
-3.06165e-05
-4.13304e-05
-5.15509e-05
-6.04933e-05
-6.73658e-05
-7.15246e-05
-7.26327e-05
-7.07605e-05
-6.63757e-05
-6.02155e-05
-5.30928e-05
-4.57232e-05
-3.86307e-05
-3.21388e-05
-2.6409e-05
-2.14909e-05
-1.73614e-05
-1.39541e-05
-1.11804e-05
-8.94534e-06
-7.15798e-06
-5.73742e-06
-4.61439e-06
-3.73048e-06
-3.03651e-06
-2.4914e-06
-2.06174e-06
-1.72165e-06
-1.45188e-06
-1.23821e-06
-1.0695e-06
-9.36156e-07
-8.29436e-07
-7.41606e-07
-6.6644e-07
-5.99603e-07
-5.38612e-07
-4.82391e-07
-4.30631e-07
-3.83226e-07
-3.39936e-07
-3.00317e-07
-2.63825e-07
-2.2999e-07
-1.98523e-07
-1.69355e-07
-1.42557e-07
-1.18253e-07
-9.65042e-08
-7.72755e-08
-6.04242e-08
-4.5752e-08
-3.30532e-08
-2.21612e-08
-1.29923e-08
-5.55471e-09
4.01455e-05
4.01267e-05
4.00781e-05
3.99985e-05
3.98842e-05
3.97273e-05
3.95166e-05
3.92373e-05
3.88697e-05
3.83884e-05
3.77601e-05
3.69421e-05
3.58804e-05
3.45072e-05
3.27393e-05
3.04762e-05
2.75999e-05
2.39774e-05
1.9466e-05
1.39248e-05
7.2333e-06
-6.80539e-07
-9.80372e-06
-1.99945e-05
-3.094e-05
-4.2127e-05
-5.28469e-05
-6.22526e-05
-6.94793e-05
-7.38177e-05
-7.48935e-05
-7.27845e-05
-6.80107e-05
-6.13874e-05
-5.38052e-05
-4.6034e-05
-3.86239e-05
-3.19015e-05
-2.60196e-05
-2.10139e-05
-1.68468e-05
-1.34381e-05
-1.06874e-05
-8.48991e-06
-6.7477e-06
-5.37497e-06
-4.29936e-06
-3.46052e-06
-2.80792e-06
-2.29963e-06
-1.9019e-06
-1.58897e-06
-1.34219e-06
-1.14807e-06
-9.9608e-07
-8.76977e-07
-7.82158e-07
-7.03951e-07
-6.36269e-07
-5.75066e-07
-5.18269e-07
-4.65249e-07
-4.16082e-07
-3.70924e-07
-3.29661e-07
-2.91879e-07
-2.57016e-07
-2.24585e-07
-1.94303e-07
-1.66136e-07
-1.40197e-07
-1.16649e-07
-9.5573e-08
-7.6925e-08
-6.05405e-08
-4.61956e-08
-3.3673e-08
-2.28184e-08
-1.35837e-08
-5.99372e-09
4.02116e-05
4.01952e-05
4.01529e-05
4.00831e-05
3.99824e-05
3.98432e-05
3.96548e-05
3.94028e-05
3.90683e-05
3.86261e-05
3.80435e-05
3.72777e-05
3.62746e-05
3.49653e-05
3.32647e-05
3.10691e-05
2.82555e-05
2.46838e-05
2.02014e-05
1.46552e-05
7.91043e-06
-1.20529e-07
-9.43838e-06
-1.99098e-05
-3.12195e-05
-4.28363e-05
-5.40132e-05
-6.38458e-05
-7.14008e-05
-7.59062e-05
-7.69519e-05
-7.46222e-05
-6.94868e-05
-6.2436e-05
-5.44329e-05
-4.62981e-05
-3.86037e-05
-3.16776e-05
-2.56631e-05
-2.05827e-05
-1.63852e-05
-1.2978e-05
-1.02497e-05
-8.08709e-06
-6.38585e-06
-5.05606e-06
-4.02277e-06
-3.22396e-06
-2.60801e-06
-2.13219e-06
-1.76244e-06
-1.47322e-06
-1.24644e-06
-1.06932e-06
-9.31927e-07
-8.25297e-07
-7.409e-07
-6.71068e-07
-6.09807e-07
-5.53334e-07
-4.99971e-07
-4.49528e-07
-4.02452e-07
-3.59144e-07
-3.19597e-07
-2.83405e-07
-2.49967e-07
-2.18759e-07
-1.89491e-07
-1.62154e-07
-1.36906e-07
-1.13953e-07
-9.33994e-08
-7.52069e-08
-5.91963e-08
-4.51248e-08
-3.27673e-08
-2.19866e-08
-1.27976e-08
-5.35514e-09
4.0265e-05
4.02507e-05
4.02135e-05
4.01519e-05
4.00625e-05
3.99379e-05
3.9768e-05
3.95388e-05
3.92317e-05
3.88221e-05
3.82775e-05
3.75555e-05
3.66014e-05
3.53459e-05
3.37022e-05
3.1564e-05
2.88042e-05
2.52766e-05
2.08206e-05
1.52725e-05
8.48505e-06
3.574e-07
-9.12359e-06
-1.98325e-05
-3.14532e-05
-4.34395e-05
-5.5012e-05
-6.52162e-05
-7.30586e-05
-7.77108e-05
-7.873e-05
-7.62061e-05
-7.07533e-05
-6.33291e-05
-5.49616e-05
-4.65148e-05
-3.8579e-05
-3.1482e-05
-2.53575e-05
-2.02162e-05
-1.59953e-05
-1.25911e-05
-9.8831e-06
-7.75075e-06
-6.08456e-06
-4.79118e-06
-3.7936e-06
-3.02852e-06
-2.44335e-06
-1.99471e-06
-1.64828e-06
-1.37871e-06
-1.16847e-06
-1.00546e-06
-8.80217e-07
-7.84037e-07
-7.08387e-07
-6.45549e-07
-5.89581e-07
-5.36919e-07
-4.86249e-07
-4.37784e-07
-3.92319e-07
-3.50479e-07
-3.12348e-07
-2.77509e-07
-2.45308e-07
-2.15172e-07
-1.86788e-07
-1.60161e-07
-1.35487e-07
-1.13013e-07
-9.28726e-08
-7.50364e-08
-5.93191e-08
-4.54658e-08
-3.32456e-08
-2.25321e-08
-1.33637e-08
-5.87413e-09
4.03043e-05
4.02915e-05
4.02582e-05
4.02029e-05
4.01221e-05
4.00088e-05
3.9853e-05
3.96412e-05
3.93552e-05
3.89708e-05
3.84555e-05
3.77672e-05
3.68511e-05
3.56374e-05
3.4038e-05
3.19445e-05
2.9227e-05
2.57343e-05
2.12996e-05
1.57511e-05
8.93152e-06
7.29226e-07
-8.87897e-06
-1.97745e-05
-3.16409e-05
-4.39208e-05
-5.58093e-05
-6.6312e-05
-7.43861e-05
-7.91571e-05
-8.01547e-05
-7.74733e-05
-7.17638e-05
-6.4039e-05
-5.53798e-05
-4.66853e-05
-3.85596e-05
-3.13291e-05
-2.51195e-05
-1.99318e-05
-1.56934e-05
-1.22924e-05
-9.60076e-06
-7.49231e-06
-5.85347e-06
-4.58835e-06
-3.61842e-06
-2.8794e-06
-2.31798e-06
-1.89024e-06
-1.56163e-06
-1.30697e-06
-1.10923e-06
-9.56884e-07
-8.40883e-07
-7.52676e-07
-6.83698e-07
-6.26143e-07
-5.74078e-07
-5.2411e-07
-4.7523e-07
-4.28003e-07
-3.83532e-07
-3.42635e-07
-3.05475e-07
-2.71618e-07
-2.40351e-07
-2.11039e-07
-1.83341e-07
-1.57261e-07
-1.33022e-07
-1.10903e-07
-9.1063e-08
-7.34858e-08
-5.79843e-08
-4.42971e-08
-3.21924e-08
-2.15607e-08
-1.24941e-08
-5.22914e-09
4.03283e-05
4.03165e-05
4.02859e-05
4.02348e-05
4.01597e-05
4.00538e-05
3.99075e-05
3.97073e-05
3.94354e-05
3.90677e-05
3.85721e-05
3.79065e-05
3.70159e-05
3.58302e-05
3.42607e-05
3.21975e-05
2.95085e-05
2.60395e-05
2.16192e-05
1.60702e-05
9.22841e-06
9.74603e-07
-8.72152e-06
-1.97463e-05
-3.17835e-05
-4.42682e-05
-5.63778e-05
-6.70898e-05
-7.53269e-05
-8.01814e-05
-8.11636e-05
-7.83706e-05
-7.24795e-05
-6.45428e-05
-5.56792e-05
-4.68121e-05
-3.85547e-05
-3.1232e-05
-2.49639e-05
-1.97441e-05
-1.54937e-05
-1.20947e-05
-9.4141e-06
-7.3217e-06
-5.70121e-06
-4.45501e-06
-3.50361e-06
-2.78209e-06
-2.23662e-06
-1.82288e-06
-1.50613e-06
-1.26134e-06
-1.07183e-06
-9.26519e-07
-8.1666e-07
-7.33799e-07
-6.69302e-07
-6.15258e-07
-5.65706e-07
-5.17366e-07
-4.69455e-07
-4.22817e-07
-3.78797e-07
-3.38377e-07
-3.01778e-07
-2.68552e-07
-2.3793e-07
-2.09218e-07
-1.82033e-07
-1.5637e-07
-1.3246e-07
-1.10604e-07
-9.09807e-08
-7.3582e-08
-5.82232e-08
-4.46407e-08
-3.26041e-08
-2.20146e-08
-1.29781e-08
-5.69726e-09
4.03363e-05
4.0325e-05
4.02956e-05
4.02463e-05
4.01739e-05
4.00716e-05
3.99297e-05
3.9735e-05
3.94697e-05
3.911e-05
3.86237e-05
3.79688e-05
3.70904e-05
3.59181e-05
3.43627e-05
3.23138e-05
2.96381e-05
2.61799e-05
2.17657e-05
1.6215e-05
9.36043e-06
1.07885e-06
-8.66371e-06
-1.97561e-05
-3.18822e-05
-4.44733e-05
-5.66977e-05
-6.75183e-05
-7.58397e-05
-8.07371e-05
-8.17105e-05
-7.88584e-05
-7.28721e-05
-6.48246e-05
-5.58543e-05
-4.68973e-05
-3.85713e-05
-3.12003e-05
-2.49009e-05
-1.96636e-05
-1.54059e-05
-1.20067e-05
-9.33054e-06
-7.24519e-06
-5.63297e-06
-4.39541e-06
-3.45254e-06
-2.73916e-06
-2.20113e-06
-1.79389e-06
-1.48257e-06
-1.24219e-06
-1.05631e-06
-9.14082e-07
-8.06952e-07
-7.26495e-07
-6.64e-07
-6.11451e-07
-5.62835e-07
-5.14918e-07
-4.67055e-07
-4.20269e-07
-3.76075e-07
-3.35569e-07
-2.99021e-07
-2.65971e-07
-2.35607e-07
-2.07182e-07
-1.80272e-07
-1.54847e-07
-1.31134e-07
-1.09436e-07
-8.99401e-08
-7.26428e-08
-5.7361e-08
-4.38321e-08
-3.18305e-08
-2.12727e-08
-1.23025e-08
-5.18951e-09
4.03279e-05
4.03165e-05
4.02868e-05
4.02373e-05
4.01644e-05
4.00615e-05
3.99188e-05
3.97233e-05
3.9457e-05
3.90961e-05
3.86085e-05
3.79521e-05
3.7072e-05
3.58977e-05
3.43401e-05
3.22889e-05
2.96105e-05
2.61494e-05
2.1732e-05
1.6178e-05
9.31983e-06
1.03454e-06
-8.71177e-06
-1.98079e-05
-3.19374e-05
-4.45315e-05
-5.67582e-05
-6.75803e-05
-7.5902e-05
-8.07987e-05
-8.17703e-05
-7.89156e-05
-7.29262e-05
-6.48755e-05
-5.59021e-05
-4.6942e-05
-3.86129e-05
-3.12387e-05
-2.49362e-05
-1.96957e-05
-1.54349e-05
-1.20329e-05
-9.35413e-06
-7.26634e-06
-5.65184e-06
-4.41223e-06
-3.46756e-06
-2.75265e-06
-2.21331e-06
-1.80489e-06
-1.49245e-06
-1.25099e-06
-1.0641e-06
-9.21005e-07
-8.13174e-07
-7.32163e-07
-6.69187e-07
-6.16136e-07
-5.6693e-07
-5.18315e-07
-4.6968e-07
-4.22116e-07
-3.77218e-07
-3.36143e-07
-2.99192e-07
-2.65906e-07
-2.35444e-07
-2.0702e-07
-1.8017e-07
-1.54832e-07
-1.31208e-07
-1.09589e-07
-9.01533e-08
-7.28966e-08
-5.76353e-08
-4.4109e-08
-3.20976e-08
-2.15268e-08
-1.2548e-08
-5.41253e-09
4.03031e-05
4.0291e-05
4.02597e-05
4.02076e-05
4.01311e-05
4.00235e-05
3.9875e-05
3.96723e-05
3.93974e-05
3.90262e-05
3.85266e-05
3.78564e-05
3.69607e-05
3.57692e-05
3.41932e-05
3.21229e-05
2.9426e-05
2.59484e-05
2.15187e-05
1.59596e-05
9.10717e-06
8.42325e-07
-8.86497e-06
-1.99007e-05
-3.19481e-05
-4.44416e-05
-5.65582e-05
-6.72745e-05
-7.55127e-05
-8.0365e-05
-8.13418e-05
-7.85411e-05
-7.26409e-05
-6.46948e-05
-5.58218e-05
-4.69455e-05
-3.8679e-05
-3.13468e-05
-2.50691e-05
-1.98399e-05
-1.55805e-05
-1.21731e-05
-9.48461e-06
-7.38489e-06
-5.75762e-06
-4.50527e-06
-3.54847e-06
-2.82233e-06
-2.27289e-06
-1.85558e-06
-1.53544e-06
-1.28736e-06
-1.09479e-06
-9.4681e-07
-8.34777e-07
-7.50167e-07
-6.84134e-07
-6.285e-07
-5.77105e-07
-5.26608e-07
-4.76327e-07
-4.27305e-07
-3.81122e-07
-3.38939e-07
-3.01074e-07
-2.67074e-07
-2.36093e-07
-2.07325e-07
-1.80269e-07
-1.54822e-07
-1.31148e-07
-1.09505e-07
-9.00499e-08
-7.27666e-08
-5.74678e-08
-4.3896e-08
-3.18373e-08
-2.12263e-08
-1.22303e-08
-5.12635e-09
4.02624e-05
4.02492e-05
4.02148e-05
4.01578e-05
4.00747e-05
3.99585e-05
3.97992e-05
3.95831e-05
3.92922e-05
3.89019e-05
3.83801e-05
3.76842e-05
3.67596e-05
3.55363e-05
3.39262e-05
3.1821e-05
2.90904e-05
2.55835e-05
2.11334e-05
1.55683e-05
8.73127e-06
5.10897e-07
-9.11556e-06
-2.00289e-05
-3.19119e-05
-4.42063e-05
-5.61061e-05
-6.66156e-05
-7.46915e-05
-7.94589e-05
-8.04479e-05
-7.7754e-05
-7.20297e-05
-6.42894e-05
-5.5615e-05
-4.69054e-05
-3.87645e-05
-3.15185e-05
-2.52932e-05
-2.009e-05
-1.58368e-05
-1.24219e-05
-9.7174e-06
-7.59693e-06
-5.94695e-06
-4.6717e-06
-3.69286e-06
-2.94621e-06
-2.37821e-06
-1.94458e-06
-1.61038e-06
-1.35034e-06
-1.14759e-06
-9.90861e-07
-8.71264e-07
-7.80145e-07
-7.08605e-07
-6.4842e-07
-5.93338e-07
-5.39869e-07
-4.87154e-07
-4.36078e-07
-3.88107e-07
-3.44355e-07
-3.05131e-07
-2.70005e-07
-2.38144e-07
-2.08735e-07
-1.81252e-07
-1.55542e-07
-1.31715e-07
-1.09982e-07
-9.04609e-08
-7.31147e-08
-5.77487e-08
-4.41069e-08
-3.19801e-08
-2.1306e-08
-1.22501e-08
-5.08783e-09
4.02067e-05
4.01918e-05
4.01531e-05
4.00892e-05
3.99965e-05
3.9868e-05
3.96931e-05
3.9458e-05
3.9144e-05
3.87264e-05
3.81727e-05
3.74402e-05
3.64744e-05
3.52057e-05
3.35473e-05
3.13927e-05
2.8615e-05
2.50677e-05
2.05905e-05
1.50197e-05
8.20844e-06
5.61107e-08
-9.44975e-06
-2.01829e-05
-3.18261e-05
-4.38318e-05
-5.54194e-05
-6.56329e-05
-7.34777e-05
-7.81251e-05
-7.91326e-05
-7.65919e-05
-7.11193e-05
-6.36742e-05
-5.52857e-05
-4.68182e-05
-3.88616e-05
-3.17433e-05
-2.55973e-05
-2.04349e-05
-1.61936e-05
-1.27704e-05
-1.00446e-05
-7.89576e-06
-6.21425e-06
-4.90692e-06
-3.89702e-06
-3.12133e-06
-2.52699e-06
-2.07013e-06
-1.71595e-06
-1.43894e-06
-1.22176e-06
-1.05263e-06
-9.22299e-07
-8.21924e-07
-7.4256e-07
-6.7595e-07
-6.15736e-07
-5.58221e-07
-5.02279e-07
-4.48532e-07
-3.98251e-07
-3.52446e-07
-3.11407e-07
-2.74725e-07
-2.41601e-07
-2.11234e-07
-1.83072e-07
-1.56912e-07
-1.32799e-07
-1.10876e-07
-9.12142e-08
-7.37458e-08
-5.82643e-08
-4.45135e-08
-3.22869e-08
-2.15203e-08
-1.23686e-08
-5.08191e-09
4.01372e-05
4.01201e-05
4.00759e-05
4.00031e-05
3.98984e-05
3.97541e-05
3.95594e-05
3.92999e-05
3.89566e-05
3.85043e-05
3.791e-05
3.7131e-05
3.61129e-05
3.4787e-05
3.30678e-05
3.08516e-05
2.80155e-05
2.44191e-05
1.99101e-05
1.43356e-05
7.56097e-06
-5.00672e-07
-9.84935e-06
-2.03507e-05
-3.16881e-05
-4.33288e-05
-5.45241e-05
-6.43679e-05
-7.19258e-05
-7.64253e-05
-7.74568e-05
-7.51066e-05
-6.99469e-05
-6.28703e-05
-5.48412e-05
-4.66804e-05
-3.89599e-05
-3.20072e-05
-2.59659e-05
-2.0859e-05
-1.66361e-05
-1.3205e-05
-1.04544e-05
-8.27107e-06
-6.55062e-06
-5.20328e-06
-4.15443e-06
-3.34214e-06
-2.71451e-06
-2.22823e-06
-1.84869e-06
-1.55011e-06
-1.31458e-06
-1.1297e-06
-9.85739e-07
-8.73626e-07
-7.84351e-07
-7.09628e-07
-6.42971e-07
-5.80431e-07
-5.20534e-07
-4.6356e-07
-4.1051e-07
-3.62245e-07
-3.19013e-07
-2.80432e-07
-2.45747e-07
-2.14174e-07
-1.85145e-07
-1.58398e-07
-1.33903e-07
-1.11728e-07
-9.18843e-08
-7.42679e-08
-5.86571e-08
-4.47933e-08
-3.24696e-08
-2.16146e-08
-1.23654e-08
-4.95955e-09
4.00556e-05
4.00359e-05
3.9985e-05
3.99018e-05
3.97826e-05
3.96195e-05
3.94013e-05
3.91129e-05
3.87348e-05
3.82413e-05
3.7599e-05
3.67651e-05
3.56855e-05
3.42923e-05
3.25022e-05
3.02145e-05
2.73113e-05
2.36595e-05
1.91166e-05
1.35418e-05
6.81526e-06
-1.1346e-06
-1.02938e-05
-2.05195e-05
-3.1497e-05
-4.27116e-05
-5.34527e-05
-6.28712e-05
-7.01012e-05
-7.44327e-05
-7.54923e-05
-7.33599e-05
-6.8558e-05
-6.19048e-05
-5.42919e-05
-4.64901e-05
-3.9049e-05
-3.22952e-05
-2.63816e-05
-2.13446e-05
-1.71474e-05
-1.37104e-05
-1.09332e-05
-8.71117e-06
-6.94614e-06
-5.55254e-06
-4.45831e-06
-3.60324e-06
-2.93653e-06
-2.41561e-06
-2.0061e-06
-1.68197e-06
-1.42471e-06
-1.22117e-06
-1.0611e-06
-9.35124e-07
-8.34157e-07
-7.49861e-07
-6.75608e-07
-6.07152e-07
-5.42624e-07
-4.81894e-07
-4.25644e-07
-3.74546e-07
-3.28785e-07
-2.88001e-07
-2.51481e-07
-2.18469e-07
-1.88376e-07
-1.60884e-07
-1.3588e-07
-1.13352e-07
-9.32457e-08
-7.54183e-08
-5.96313e-08
-4.5622e-08
-3.31792e-08
-2.22167e-08
-1.28351e-08
-5.19667e-09
3.99636e-05
3.9941e-05
3.98826e-05
3.97875e-05
3.96519e-05
3.94676e-05
3.92227e-05
3.89017e-05
3.84842e-05
3.79442e-05
3.72479e-05
3.63524e-05
3.52039e-05
3.37358e-05
3.1867e-05
2.95006e-05
2.65245e-05
2.28139e-05
1.8237e-05
1.2667e-05
5.99979e-06
-1.81948e-06
-1.07623e-05
-2.06775e-05
-3.12542e-05
-4.19985e-05
-5.22423e-05
-6.11988e-05
-6.80748e-05
-7.2226e-05
-7.33164e-05
-7.14185e-05
-6.70027e-05
-6.08089e-05
-5.36517e-05
-4.62472e-05
-3.91195e-05
-3.25917e-05
-2.68259e-05
-2.18723e-05
-1.77086e-05
-1.42689e-05
-1.14651e-05
-9.20186e-06
-7.38842e-06
-5.94394e-06
-4.79947e-06
-3.89675e-06
-3.18634e-06
-2.62653e-06
-2.18324e-06
-1.83023e-06
-1.54833e-06
-1.32368e-06
-1.1454e-06
-1.0038e-06
-8.89645e-07
-7.94542e-07
-7.11694e-07
-6.36537e-07
-5.6677e-07
-5.01821e-07
-4.42009e-07
-3.87787e-07
-3.39253e-07
-2.96054e-07
-2.57516e-07
-2.22903e-07
-1.91607e-07
-1.63251e-07
-1.37641e-07
-1.1468e-07
-9.4252e-08
-7.61736e-08
-6.01896e-08
-4.60317e-08
-3.34808e-08
-2.24299e-08
-1.29432e-08
-5.13893e-09
3.98636e-05
3.98377e-05
3.97711e-05
3.96629e-05
3.95095e-05
3.93021e-05
3.90281e-05
3.86714e-05
3.82112e-05
3.76207e-05
3.68659e-05
3.59038e-05
3.46812e-05
3.31328e-05
3.11801e-05
2.87307e-05
2.56788e-05
2.19084e-05
1.72997e-05
1.17404e-05
5.14324e-06
-2.52962e-06
-1.12352e-05
-2.0815e-05
-3.09635e-05
-4.12106e-05
-5.0933e-05
-5.94086e-05
-6.59184e-05
-6.98843e-05
-7.10067e-05
-6.93501e-05
-6.5333e-05
-5.96167e-05
-5.29375e-05
-4.59548e-05
-3.91641e-05
-3.2883e-05
-2.72815e-05
-2.24232e-05
-1.83007e-05
-1.48628e-05
-1.20337e-05
-9.72883e-06
-7.86505e-06
-6.36694e-06
-5.16906e-06
-4.21541e-06
-3.45809e-06
-2.85631e-06
-2.37643e-06
-1.99202e-06
-1.68331e-06
-1.43569e-06
-1.23764e-06
-1.07909e-06
-9.50647e-07
-8.43804e-07
-7.51583e-07
-6.69093e-07
-5.93591e-07
-5.24045e-07
-4.60393e-07
-4.02837e-07
-3.51366e-07
-3.05611e-07
-2.64923e-07
-2.2858e-07
-1.95953e-07
-1.66608e-07
-1.40272e-07
-1.16772e-07
-9.59309e-08
-7.75303e-08
-6.12993e-08
-4.69619e-08
-3.42865e-08
-2.31374e-08
-1.35232e-08
-5.4588e-09
3.97577e-05
3.97284e-05
3.96532e-05
3.95312e-05
3.93588e-05
3.91268e-05
3.88221e-05
3.84278e-05
3.79225e-05
3.7279e-05
3.64627e-05
3.54309e-05
3.4131e-05
3.24994e-05
3.04605e-05
2.79264e-05
2.47982e-05
2.09694e-05
1.63326e-05
1.07906e-05
4.27286e-06
-3.24146e-06
-1.16957e-05
-2.09254e-05
-3.0632e-05
-4.03708e-05
-4.95651e-05
-5.75573e-05
-6.37013e-05
-6.74828e-05
-6.86368e-05
-6.722e-05
-6.36004e-05
-5.83634e-05
-5.21688e-05
-4.56188e-05
-3.91783e-05
-3.31575e-05
-2.77324e-05
-2.29792e-05
-1.89053e-05
-1.54739e-05
-1.26223e-05
-1.02768e-05
-8.36249e-06
-6.80967e-06
-5.55678e-06
-4.55037e-06
-3.74416e-06
-3.09847e-06
-2.58011e-06
-2.16254e-06
-1.82548e-06
-1.55357e-06
-1.33466e-06
-1.15825e-06
-1.01473e-06
-8.95462e-07
-7.93275e-07
-7.02955e-07
-6.21328e-07
-5.46899e-07
-4.79213e-07
-4.18202e-07
-3.63717e-07
-3.15348e-07
-2.72452e-07