/*--------------------------------*- C++ -*----------------------------------*\
| =========                 |                                                 |
| \\      /  F ield         | OpenFOAM: The Open Source CFD Toolbox           |
|  \\    /   O peration     | Version:  2512                                  |
|   \\  /    A nd           | Website:  www.openfoam.com                      |
|    \\/     M anipulation  |                                                 |
\*---------------------------------------------------------------------------*/
FoamFile
{
    version     2.0;
    format      ascii;
    arch        "LSB;label=32;scalar=64";
    class       volScalarField;
    location    "100";
    object      omega;
}
// * * * * * * * * * * * * * * * * * * * * * * * * * * * * * * * * * * * * * //

dimensions      [0 0 -1 0 0 0 0];

internalField   nonuniform List<scalar> 
220594
(
8.07067
6.69608
5.69885
4.94658
4.36122
3.89414
3.51361
3.19816
2.93275
2.7066
2.51176
2.34227
2.19357
2.06212
1.94514
1.8404
1.74609
1.66076
1.58321
1.51242
1.44757
1.38794
1.33294
1.28205
1.23484
1.19092
1.14997
1.11169
1.07585
1.0422
1.01057
0.98077
0.952654
0.926083
0.900935
0.877098
0.854473
0.832972
0.812514
0.793023
0.774435
0.756689
0.739728
0.723502
0.707966
0.693075
0.678791
0.665078
0.651903
0.639234
0.627044
0.615305
0.603994
0.593087
0.582564
0.572404
0.562589
0.553103
0.543928
0.53505
0.526455
0.518129
0.510061
0.502238
0.494649
0.487285
0.480135
0.47319
0.466442
0.459882
0.453503
0.447297
0.441258
0.435378
0.429652
0.424074
0.418637
0.413338
0.408171
0.403205
8.07067
6.69608
5.69885
4.94658
4.36122
3.89414
3.51361
3.19816
2.93275
2.7066
2.51176
2.34227
2.19357
2.06213
1.94514
1.8404
1.74609
1.66076
1.58321
1.51242
1.44757
1.38794
1.33294
1.28205
1.23484
1.19092
1.14997
1.11169
1.07585
1.0422
1.01057
0.980771
0.952655
0.926084
0.900936
0.877099
0.854475
0.832974
0.812515
0.793025
0.774437
0.75669
0.739729
0.723504
0.707967
0.693076
0.678792
0.665079
0.651904
0.639235
0.627045
0.615306
0.603995
0.593088
0.582564
0.572405
0.56259
0.553103
0.543928
0.535051
0.526455
0.51813
0.510061
0.502238
0.49465
0.487285
0.480136
0.473191
0.466443
0.459883
0.453504
0.447298
0.441258
0.435379
0.429652
0.424074
0.418638
0.413338
0.408171
0.403205
8.07067
6.69608
5.69885
4.94658
4.36122
3.89414
3.51361
3.19816
2.93275
2.7066
2.51176
2.34227
2.19357
2.06213
1.94514
1.8404
1.74609
1.66076
1.58321
1.51242
1.44757
1.38794
1.33294
1.28205
1.23484
1.19092
1.14997
1.1117
1.07585
1.0422
1.01057
0.980772
0.952656
0.926086
0.900937
0.8771
0.854476
0.832975
0.812516
0.793026
0.774438
0.756692
0.739731
0.723505
0.707968
0.693078
0.678794
0.665081
0.651905
0.639237
0.627046
0.615307
0.603996
0.593089
0.582566
0.572406
0.562591
0.553104
0.543929
0.535052
0.526456
0.518131
0.510062
0.502239
0.494651
0.487286
0.480136
0.473192
0.466443
0.459884
0.453504
0.447298
0.441259
0.435379
0.429653
0.424075
0.418638
0.413338
0.408172
0.403206
8.07067
6.69608
5.69885
4.94658
4.36122
3.89414
3.51361
3.19816
2.93275
2.7066
2.51176
2.34227
2.19357
2.06212
1.94514
1.8404
1.74609
1.66076
1.58321
1.51242
1.44757
1.38794
1.33294
1.28205
1.23484
1.19092
1.14997
1.1117
1.07585
1.0422
1.01057
0.980773
0.952658
0.926087
0.900939
0.877102
0.854478
0.832977
0.812518
0.793028
0.77444
0.756693
0.739733
0.723507
0.70797
0.693079
0.678796
0.665083
0.651907
0.639238
0.627048
0.615309
0.603997
0.593091
0.582567
0.572407
0.562592
0.553106
0.543931
0.535053
0.526458
0.518132
0.510063
0.50224
0.494652
0.487287
0.480137
0.473193
0.466444
0.459884
0.453505
0.447299
0.44126
0.43538
0.429654
0.424075
0.418639
0.413339
0.408172
0.403206
8.07067
6.69608
5.69885
4.94658
4.36122
3.89414
3.51361
3.19816
2.93275
2.7066
2.51176
2.34227
2.19357
2.06212
1.94514
1.8404
1.74609
1.66076
1.58321
1.51242
1.44757
1.38794
1.33294
1.28205
1.23484
1.19092
1.14997
1.1117
1.07585
1.04221
1.01057
0.980775
0.95266
0.926089
0.900941
0.877104
0.85448
0.832979
0.81252
0.79303
0.774442
0.756695
0.739735
0.723509
0.707972
0.693081
0.678797
0.665084
0.651909
0.63924
0.627049
0.615311
0.603999
0.593092
0.582568
0.572408
0.562594
0.553107
0.543932
0.535054
0.526459
0.518133
0.510065
0.502241
0.494653
0.487288
0.480138
0.473194
0.466445
0.459885
0.453506
0.4473
0.441261
0.435381
0.429655
0.424076
0.41864
0.41334
0.408173
0.403207
8.07067
6.69608
5.69885
4.94658
4.36122
3.89414
3.51361
3.19816
2.93275
2.7066
2.51176
2.34227
2.19357
2.06212
1.94514
1.8404
1.74609
1.66076
1.58321
1.51242
1.44757
1.38794
1.33294
1.28205
1.23484
1.19092
1.14997
1.1117
1.07585
1.04221
1.01057
0.980777
0.952662
0.926091
0.900943
0.877106
0.854482
0.832982
0.812523
0.793033
0.774444
0.756698
0.739737
0.723511
0.707974
0.693083
0.678799
0.665086
0.651911
0.639242
0.627051
0.615312
0.604001
0.593094
0.58257
0.57241
0.562595
0.553108
0.543934
0.535055
0.52646
0.518134
0.510066
0.502243
0.494654
0.48729
0.48014
0.473195
0.466446
0.459887
0.453507
0.447301
0.441262
0.435382
0.429656
0.424077
0.418641
0.413341
0.408174
0.403208
8.07067
6.69608
5.69885
4.94658
4.36122
3.89414
3.51361
3.19816
2.93275
2.7066
2.51176
2.34227
2.19357
2.06212
1.94514
1.8404
1.74609
1.66076
1.58321
1.51242
1.44757
1.38794
1.33294
1.28205
1.23484
1.19092
1.14997
1.1117
1.07585
1.04221
1.01058
0.980779
0.952664
0.926094
0.900945
0.877109
0.854485
0.832984
0.812525
0.793035
0.774447
0.7567
0.739739
0.723513
0.707976
0.693086
0.678802
0.665088
0.651913
0.639244
0.627053
0.615314
0.604003
0.593096
0.582572
0.572412
0.562597
0.55311
0.543935
0.535057
0.526462
0.518136
0.510067
0.502244
0.494655
0.487291
0.480141
0.473196
0.466448
0.459888
0.453508
0.447302
0.441263
0.435383
0.429657
0.424078
0.418642
0.413342
0.408175
0.403209
8.07067
6.69608
5.69885
4.94658
4.36122
3.89414
3.51361
3.19816
2.93275
2.7066
2.51176
2.34227
2.19357
2.06212
1.94514
1.8404
1.74609
1.66076
1.58321
1.51242
1.44757
1.38794
1.33294
1.28205
1.23484
1.19093
1.14997
1.1117
1.07585
1.04221
1.01058
0.980781
0.952666
0.926096
0.900948
0.877111
0.854487
0.832987
0.812528
0.793038
0.77445
0.756703
0.739742
0.723516
0.707979
0.693088
0.678804
0.665091
0.651915
0.639246
0.627055
0.615316
0.604005
0.593097
0.582574
0.572414
0.562599
0.553112
0.543937
0.535059
0.526463
0.518137
0.510069
0.502246
0.494657
0.487292
0.480142
0.473197
0.466449
0.459889
0.45351
0.447304
0.441264
0.435384
0.429658
0.424079
0.418643
0.413343
0.408176
0.40321
8.07067
6.69608
5.69885
4.94658
4.36122
3.89414
3.51361
3.19816
2.93275
2.7066
2.51176
2.34227
2.19357
2.06212
1.94514
1.84039
1.74609
1.66076
1.58321
1.51242
1.44757
1.38794
1.33294
1.28205
1.23484
1.19093
1.14997
1.1117
1.07586
1.04221
1.01058
0.980783
0.952668
0.926098
0.90095
0.877114
0.85449
0.832989
0.812531
0.79304
0.774452
0.756705
0.739744
0.723519
0.707981
0.69309
0.678806
0.665093
0.651917
0.639248
0.627057
0.615318
0.604007
0.593099
0.582576
0.572415
0.5626
0.553114
0.543938
0.53506
0.526465
0.518139
0.51007
0.502247
0.494658
0.487294
0.480144
0.473199
0.46645
0.45989
0.453511
0.447305
0.441265
0.435385
0.429659
0.424081
0.418644
0.413344
0.408177
0.403211
8.07067
6.69608
5.69885
4.94658
4.36122
3.89414
3.51361
3.19816
2.93275
2.7066
2.51176
2.34227
2.19357
2.06212
1.94514
1.84039
1.74609
1.66076
1.58321
1.51242
1.44757
1.38794
1.33294
1.28205
1.23484
1.19093
1.14998
1.1117
1.07586
1.04221
1.01058
0.980786
0.952671
0.926101
0.900953
0.877117
0.854493
0.832992
0.812534
0.793043
0.774455
0.756708
0.739747
0.723521
0.707984
0.693093
0.678809
0.665096
0.65192
0.639251
0.62706
0.615321
0.604009
0.593102
0.582578
0.572417
0.562602
0.553115
0.54394
0.535062
0.526467
0.518141
0.510072
0.502249
0.49466
0.487295
0.480145
0.4732
0.466452
0.459892
0.453512
0.447306
0.441267
0.435387
0.42966
0.424082
0.418645
0.413345
0.408178
0.403212
8.07067
6.69608
5.69885
4.94658
4.36122
3.89414
3.51361
3.19816
2.93275
2.7066
2.51176
2.34227
2.19357
2.06212
1.94514
1.84039
1.74609
1.66076
1.58321
1.51242
1.44757
1.38794
1.33294
1.28205
1.23484
1.19093
1.14998
1.1117
1.07586
1.04222
1.01058
0.980788
0.952674
0.926104
0.900956
0.87712
0.854496
0.832995
0.812537
0.793046
0.774458
0.756711
0.73975
0.723524
0.707987
0.693096
0.678811
0.665098
0.651922
0.639253
0.627062
0.615323
0.604011
0.593104
0.58258
0.572419
0.562604
0.553117
0.543942
0.535064
0.526468
0.518142
0.510074
0.50225
0.494661
0.487297
0.480147
0.473202
0.466453
0.459893
0.453514
0.447308
0.441268
0.435388
0.429662
0.424083
0.418646
0.413346
0.408179
0.403213
8.07067
6.69608
5.69885
4.94658
4.36122
3.89414
3.51361
3.19816
2.93275
2.7066
2.51176
2.34227
2.19357
2.06212
1.94514
1.84039
1.74609
1.66076
1.58321
1.51242
1.44757
1.38794
1.33294
1.28205
1.23484
1.19093
1.14998
1.11171
1.07586
1.04222
1.01059
0.98079
0.952676
0.926107
0.900959
0.877123
0.854499
0.832998
0.81254
0.793049
0.774461
0.756714
0.739753
0.723527
0.70799
0.693098
0.678814
0.665101
0.651925
0.639255
0.627064
0.615325
0.604013
0.593106
0.582582
0.572421
0.562606
0.553119
0.543944
0.535066
0.52647
0.518144
0.510075
0.502252
0.494663
0.487298
0.480148
0.473203
0.466455
0.459894
0.453515
0.447309
0.441269
0.435389
0.429663
0.424084
0.418648
0.413348
0.40818
0.403214
8.07067
6.69608
5.69885
4.94658
4.36122
3.89414
3.51361
3.19816
2.93275
2.7066
2.51176
2.34227
2.19357
2.06212
1.94514
1.84039
1.74609
1.66076
1.58321
1.51242
1.44757
1.38794
1.33294
1.28206
1.23484
1.19093
1.14998
1.11171
1.07586
1.04222
1.01059
0.980793
0.952679
0.926109
0.900962
0.877126
0.854502
0.833001
0.812543
0.793052
0.774464
0.756717
0.739756
0.72353
0.707992
0.693101
0.678817
0.665103
0.651927
0.639258
0.627066
0.615327
0.604015
0.593108
0.582584
0.572423
0.562608
0.553121
0.543946
0.535067
0.526472
0.518146
0.510077
0.502254
0.494665
0.4873
0.48015
0.473204
0.466456
0.459896
0.453516
0.44731
0.44127
0.43539
0.429664
0.424085
0.418649
0.413349
0.408182
0.403215
8.07067
6.69608
5.69885
4.94658
4.36122
3.89414
3.51361
3.19816
2.93275
2.7066
2.51176
2.34227
2.19357
2.06212
1.94514
1.84039
1.74609
1.66076
1.58321
1.51242
1.44757
1.38794
1.33294
1.28206
1.23485
1.19093
1.14998
1.11171
1.07586
1.04222
1.01059
0.980795
0.952681
0.926112
0.900964
0.877129
0.854505
0.833004
0.812545
0.793055
0.774467
0.75672
0.739758
0.723532
0.707995
0.693103
0.678819
0.665105
0.651929
0.63926
0.627069
0.615329
0.604017
0.59311
0.582586
0.572425
0.56261
0.553123
0.543947
0.535069
0.526473
0.518147
0.510078
0.502255
0.494666
0.487301
0.480151
0.473206
0.466457
0.459897
0.453518
0.447311
0.441272
0.435392
0.429665
0.424086
0.41865
0.41335
0.408183
0.403216
8.07067
6.69608
5.69885
4.94658
4.36122
3.89414
3.51361
3.19816
2.93275
2.7066
2.51176
2.34227
2.19357
2.06212
1.94514
1.84039
1.74609
1.66076
1.58321
1.51242
1.44757
1.38794
1.33294
1.28206
1.23485
1.19093
1.14998
1.11171
1.07586
1.04222
1.01059
0.980797
0.952683
0.926114
0.900967
0.877131
0.854508
0.833007
0.812548
0.793058
0.774469
0.756722
0.739761
0.723535
0.707997
0.693106
0.678821
0.665108
0.651931
0.639262
0.627071
0.615331
0.604019
0.593112
0.582588
0.572427
0.562612
0.553124
0.543949
0.535071
0.526475
0.518149
0.51008
0.502256
0.494667
0.487303
0.480152
0.473207
0.466459
0.459898
0.453519
0.447313
0.441273
0.435393
0.429666
0.424088
0.418651
0.413351
0.408184
0.403217
8.07067
6.69608
5.69885
4.94658
4.36122
3.89414
3.51361
3.19816
2.93275
2.7066
2.51176
2.34227
2.19357
2.06212
1.94514
1.84039
1.74609
1.66076
1.58321
1.51242
1.44757
1.38794
1.33294
1.28206
1.23485
1.19093
1.14998
1.11171
1.07587
1.04223
1.01059
0.980799
0.952685
0.926117
0.900969
0.877134
0.85451
0.833009
0.81255
0.79306
0.774472
0.756725
0.739763
0.723537
0.707999
0.693108
0.678823
0.66511
0.651933
0.639264
0.627072
0.615333
0.604021
0.593113
0.582589
0.572429
0.562613
0.553126
0.543951
0.535072
0.526476
0.51815
0.510081
0.502258
0.494669
0.487304
0.480153
0.473208
0.46646
0.459899
0.45352
0.447314
0.441274
0.435394
0.429667
0.424089
0.418652
0.413352
0.408185
0.403218
8.07067
6.69608
5.69885
4.94658
4.36122
3.89414
3.51361
3.19816
2.93275
2.7066
2.51176
2.34227
2.19357
2.06212
1.94514
1.84039
1.74609
1.66076
1.58321
1.51242
1.44757
1.38794
1.33294
1.28206
1.23485
1.19093
1.14998
1.11171
1.07587
1.04223
1.0106
0.980801
0.952687
0.926118
0.900971
0.877136
0.854512
0.833011
0.812553
0.793062
0.774474
0.756727
0.739765
0.723539
0.708001
0.69311
0.678825
0.665111
0.651935
0.639265
0.627074
0.615334
0.604022
0.593115
0.582591
0.57243
0.562615
0.553127
0.543952
0.535073
0.526478
0.518151
0.510082
0.502259
0.49467
0.487305
0.480154
0.473209
0.466461
0.4599
0.453521
0.447315
0.441275
0.435395
0.429668
0.424089
0.418653
0.413353
0.408185
0.403219
8.07067
6.69608
5.69885
4.94658
4.36122
3.89414
3.51361
3.19816
2.93275
2.7066
2.51176
2.34227
2.19357
2.06212
1.94514
1.84039
1.74609
1.66076
1.5832
1.51242
1.44757
1.38794
1.33294
1.28206
1.23485
1.19093
1.14998
1.11171
1.07587
1.04223
1.0106
0.980802
0.952689
0.92612
0.900973
0.877137
0.854514
0.833013
0.812554
0.793064
0.774475
0.756728
0.739767
0.72354
0.708003
0.693111
0.678826
0.665113
0.651936
0.639267
0.627075
0.615336
0.604023
0.593116
0.582592
0.572431
0.562616
0.553128
0.543953
0.535074
0.526478
0.518152
0.510083
0.50226
0.494671
0.487306
0.480155
0.47321
0.466461
0.459901
0.453522
0.447315
0.441275
0.435395
0.429669
0.42409
0.418653
0.413353
0.408186
0.40322
8.07067
6.69608
5.69885
4.94658
4.36122
3.89414
3.51361
3.19816
2.93275
2.7066
2.51176
2.34227
2.19357
2.06212
1.94514
1.84039
1.74609
1.66076
1.5832
1.51242
1.44757
1.38794
1.33294
1.28206
1.23485
1.19093
1.14998
1.11171
1.07587
1.04223
1.0106
0.980803
0.95269
0.926121
0.900974
0.877138
0.854515
0.833014
0.812555
0.793065
0.774476
0.756729
0.739768
0.723541
0.708004
0.693112
0.678827
0.665113
0.651937
0.639267
0.627076
0.615336
0.604024
0.593117
0.582592
0.572432
0.562616
0.553129
0.543953
0.535075
0.526479
0.518153
0.510084
0.50226
0.494671
0.487306
0.480156
0.473211
0.466462
0.459902
0.453522
0.447316
0.441276
0.435396
0.429669
0.42409
0.418654
0.413354
0.408186
0.40322
8.07067
6.69608
5.69885
4.94658
4.36122
3.89414
3.51361
3.19816
2.93275
2.7066
2.51176
2.34227
2.19357
2.06212
1.94514
1.84039
1.74609
1.66076
1.5832
1.51242
1.44757
1.38794
1.33294
1.28206
1.23485
1.19093
1.14998
1.11171
1.07587
1.04223
1.0106
0.980803
0.95269
0.926121
0.900974
0.877139
0.854515
0.833015
0.812556
0.793065
0.774477
0.75673
0.739768
0.723542
0.708004
0.693112
0.678828
0.665114
0.651938
0.639268
0.627076
0.615337
0.604025
0.593117
0.582593
0.572432
0.562617
0.553129
0.543954
0.535075
0.526479
0.518153
0.510084
0.502261
0.494671
0.487307
0.480156
0.473211
0.466462
0.459902
0.453522
0.447316
0.441276
0.435396
0.429669
0.424091
0.418654
0.413354
0.408187
0.40322
8.07067
6.69608
5.69885
4.94658
4.36122
3.89414
3.51361
3.19816
2.93275
2.7066
2.51176
2.34227
2.19357
2.06212
1.94514
1.84039
1.74609
1.66076
1.5832
1.51242
1.44757
1.38794
1.33294
1.28206
1.23485
1.19093
1.14998
1.11171
1.07587
1.04223
1.0106
0.980803
0.95269
0.926121
0.900974
0.877139
0.854515
0.833015
0.812556
0.793065
0.774477
0.75673
0.739768
0.723542
0.708004
0.693112
0.678828
0.665114
0.651938
0.639268
0.627076
0.615337
0.604025
0.593117
0.582593
0.572432
0.562617
0.553129
0.543954
0.535075
0.526479
0.518153
0.510084
0.502261
0.494671
0.487307
0.480156
0.473211
0.466462
0.459902
0.453522
0.447316
0.441276
0.435396
0.429669
0.424091
0.418654
0.413354
0.408187
0.40322
8.07067
6.69608
5.69885
4.94658
4.36122
3.89414
3.51361
3.19816
2.93275
2.7066
2.51176
2.34227
2.19357
2.06212
1.94514
1.84039
1.74609
1.66076
1.5832
1.51242
1.44757
1.38794
1.33294
1.28206
1.23485
1.19093
1.14998
1.11171
1.07587
1.04223
1.0106
0.980803
0.95269
0.926121
0.900974
0.877138
0.854515
0.833014
0.812555
0.793065
0.774476
0.756729
0.739768
0.723541
0.708004
0.693112
0.678827
0.665113
0.651937
0.639267
0.627076
0.615336
0.604024
0.593117
0.582592
0.572432
0.562616
0.553129
0.543953
0.535075
0.526479
0.518153
0.510084
0.50226
0.494671
0.487306
0.480156
0.473211
0.466462
0.459902
0.453522
0.447316
0.441276
0.435396
0.429669
0.42409
0.418654
0.413354
0.408186
0.40322
8.07067
6.69608
5.69885
4.94658
4.36122
3.89414
3.51361
3.19816
2.93275
2.7066
2.51176
2.34227
2.19357
2.06212
1.94514
1.84039
1.74609
1.66076
1.5832
1.51242
1.44757
1.38794
1.33294
1.28206
1.23485
1.19093
1.14998
1.11171
1.07587
1.04223
1.0106
0.980802
0.952689
0.92612
0.900973
0.877137
0.854514
0.833013
0.812554
0.793064
0.774475
0.756728
0.739767
0.72354
0.708003
0.693111
0.678826
0.665113
0.651936
0.639267
0.627075
0.615336
0.604023
0.593116
0.582592
0.572431
0.562616
0.553128
0.543953
0.535074
0.526478
0.518152
0.510083
0.50226
0.494671
0.487306
0.480155
0.47321
0.466461
0.459901
0.453522
0.447315
0.441275
0.435395
0.429669
0.42409
0.418653
0.413353
0.408186
0.40322
8.07067
6.69608
5.69885
4.94658
4.36122
3.89414
3.51361
3.19816
2.93275
2.7066
2.51176
2.34227
2.19357
2.06212
1.94514
1.84039
1.74609
1.66076
1.58321
1.51242
1.44757
1.38794
1.33294
1.28206
1.23485
1.19093
1.14998
1.11171
1.07587
1.04223
1.0106
0.980801
0.952687
0.926118
0.900971
0.877136
0.854512
0.833011
0.812553
0.793062
0.774474
0.756727
0.739765
0.723539
0.708001
0.69311
0.678825
0.665111
0.651935
0.639265
0.627074
0.615334
0.604022
0.593115
0.58259
0.57243
0.562615
0.553127
0.543952
0.535073
0.526477
0.518151
0.510082
0.502259
0.49467
0.487305
0.480154
0.473209
0.466461
0.4599
0.453521
0.447315
0.441275
0.435395
0.429668
0.424089
0.418653
0.413353
0.408185
0.403219
8.07067
6.69608
5.69885
4.94658
4.36122
3.89414
3.51361
3.19816
2.93275
2.7066
2.51176
2.34227
2.19357
2.06212
1.94514
1.84039
1.74609
1.66076
1.58321
1.51242
1.44757
1.38794
1.33294
1.28206
1.23485
1.19093
1.14998
1.11171
1.07587
1.04223
1.01059
0.980799
0.952685
0.926117
0.900969
0.877134
0.85451
0.833009
0.81255
0.79306
0.774472
0.756725
0.739763
0.723537
0.707999
0.693108
0.678823
0.66511
0.651933
0.639264
0.627072
0.615333
0.604021
0.593113
0.582589
0.572429
0.562613
0.553126
0.543951
0.535072
0.526476
0.51815
0.510081
0.502258
0.494669
0.487304
0.480153
0.473208
0.46646
0.459899
0.45352
0.447314
0.441274
0.435394
0.429667
0.424088
0.418652
0.413352
0.408185
0.403218
8.07067
6.69608
5.69885
4.94658
4.36122
3.89414
3.51361
3.19816
2.93275
2.7066
2.51176
2.34227
2.19357
2.06212
1.94514
1.84039
1.74609
1.66076
1.58321
1.51242
1.44757
1.38794
1.33294
1.28206
1.23485
1.19093
1.14998
1.11171
1.07586
1.04222
1.01059
0.980797
0.952683
0.926114
0.900967
0.877131
0.854508
0.833007
0.812548
0.793058
0.774469
0.756722
0.739761
0.723535
0.707997
0.693106
0.678821
0.665108
0.651931
0.639262
0.627071
0.615331
0.604019
0.593112
0.582588
0.572427
0.562612
0.553124
0.543949
0.535071
0.526475
0.518149
0.51008
0.502256
0.494667
0.487303
0.480152
0.473207
0.466459
0.459898
0.453519
0.447313
0.441273
0.435393
0.429666
0.424088
0.418651
0.413351
0.408184
0.403217
8.07067
6.69608
5.69885
4.94658
4.36122
3.89414
3.51361
3.19816
2.93275
2.7066
2.51176
2.34227
2.19357
2.06212
1.94514
1.84039
1.74609
1.66076
1.58321
1.51242
1.44757
1.38794
1.33294
1.28206
1.23485
1.19093
1.14998
1.11171
1.07586
1.04222
1.01059
0.980795
0.952681
0.926112
0.900964
0.877129
0.854505
0.833004
0.812545
0.793055
0.774467
0.75672
0.739758
0.723532
0.707995
0.693103
0.678819
0.665105
0.651929
0.63926
0.627069
0.615329
0.604017
0.59311
0.582586
0.572425
0.56261
0.553123
0.543947
0.535069
0.526473
0.518147
0.510078
0.502255
0.494666
0.487301
0.480151
0.473206
0.466457
0.459897
0.453518
0.447311
0.441272
0.435392
0.429665
0.424086
0.41865
0.41335
0.408183
0.403216
8.07067
6.69608
5.69885
4.94658
4.36122
3.89414
3.51361
3.19816
2.93275
2.7066
2.51176
2.34227
2.19357
2.06212
1.94514
1.84039
1.74609
1.66076
1.58321
1.51242
1.44757
1.38794
1.33294
1.28206
1.23484
1.19093
1.14998
1.11171
1.07586
1.04222
1.01059
0.980793
0.952679
0.926109
0.900962
0.877126
0.854502
0.833001
0.812543
0.793052
0.774464
0.756717
0.739756
0.72353
0.707992
0.693101
0.678817
0.665103
0.651927
0.639258
0.627066
0.615327
0.604015
0.593108
0.582584
0.572423
0.562608
0.553121
0.543946
0.535067
0.526472
0.518146
0.510077
0.502253
0.494665
0.4873
0.48015
0.473204
0.466456
0.459896
0.453516
0.44731
0.44127
0.43539
0.429664
0.424085
0.418649
0.413349
0.408182
0.403215
8.07067
6.69608
5.69885
4.94658
4.36122
3.89414
3.51361
3.19816
2.93275
2.7066
2.51176
2.34227
2.19357
2.06212
1.94514
1.84039
1.74609
1.66076
1.58321
1.51242
1.44757
1.38794
1.33294
1.28205
1.23484
1.19093
1.14998
1.11171
1.07586
1.04222
1.01059
0.98079
0.952676
0.926107
0.900959
0.877123
0.854499
0.832998
0.81254
0.793049
0.774461
0.756714
0.739753
0.723527
0.70799
0.693098
0.678814
0.665101
0.651925
0.639255
0.627064
0.615325
0.604013
0.593106
0.582582
0.572421
0.562606
0.553119
0.543944
0.535066
0.52647
0.518144
0.510075
0.502252
0.494663
0.487298
0.480148
0.473203
0.466455
0.459894
0.453515
0.447309
0.441269
0.435389
0.429663
0.424084
0.418647
0.413348
0.40818
0.403214
8.07067
6.69608
5.69885
4.94658
4.36122
3.89414
3.51361
3.19816
2.93275
2.7066
2.51176
2.34227
2.19357
2.06212
1.94514
1.84039
1.74609
1.66076
1.58321
1.51242
1.44757
1.38794
1.33294
1.28205
1.23484
1.19093
1.14998
1.1117
1.07586
1.04222
1.01058
0.980788
0.952674
0.926104
0.900956
0.87712
0.854496
0.832995
0.812537
0.793046
0.774458
0.756711
0.73975
0.723524
0.707987
0.693096
0.678811
0.665098
0.651922
0.639253
0.627062
0.615323
0.604011
0.593104
0.58258
0.572419
0.562604
0.553117
0.543942
0.535064
0.526468
0.518142
0.510074
0.50225
0.494661
0.487297
0.480147
0.473202
0.466453
0.459893
0.453514
0.447308
0.441268
0.435388
0.429662
0.424083
0.418646
0.413346
0.408179
0.403213
8.07067
6.69608
5.69885
4.94658
4.36122
3.89414
3.51361
3.19816
2.93275
2.7066
2.51176
2.34227
2.19357
2.06212
1.94514
1.84039
1.74609
1.66076
1.58321
1.51242
1.44757
1.38794
1.33294
1.28205
1.23484
1.19093
1.14998
1.1117
1.07586
1.04221
1.01058
0.980786
0.952671
0.926101
0.900953
0.877117
0.854493
0.832992
0.812533
0.793043
0.774455
0.756708
0.739747
0.723521
0.707984
0.693093
0.678809
0.665095
0.65192
0.63925
0.62706
0.61532
0.604009
0.593101
0.582578
0.572417
0.562602
0.553115
0.54394
0.535062
0.526467
0.518141
0.510072
0.502249
0.49466
0.487295
0.480145
0.4732
0.466452
0.459892
0.453512
0.447306
0.441266
0.435387
0.42966
0.424082
0.418645
0.413345
0.408178
0.403212
8.07067
6.69608
5.69885
4.94658
4.36122
3.89414
3.51361
3.19816
2.93275
2.7066
2.51176
2.34227
2.19357
2.06212
1.94514
1.84039
1.74609
1.66076
1.58321
1.51242
1.44757
1.38794
1.33294
1.28205
1.23484
1.19093
1.14998
1.1117
1.07586
1.04221
1.01058
0.980783
0.952668
0.926099
0.90095
0.877114
0.85449
0.832989
0.812531
0.79304
0.774452
0.756705
0.739744
0.723518
0.707981
0.69309
0.678806
0.665093
0.651917
0.639248
0.627057
0.615318
0.604007
0.593099
0.582576
0.572415
0.5626
0.553113
0.543938
0.53506
0.526465
0.518139
0.51007
0.502247
0.494658
0.487294
0.480144
0.473199
0.46645
0.45989
0.453511
0.447305
0.441265
0.435385
0.429659
0.42408
0.418644
0.413344
0.408177
0.403211
8.07067
6.69608
5.69885
4.94658
4.36122
3.89414
3.51361
3.19816
2.93275
2.7066
2.51176
2.34227
2.19357
2.06212
1.94514
1.8404
1.74609
1.66076
1.58321
1.51242
1.44757
1.38794
1.33294
1.28205
1.23484
1.19093
1.14997
1.1117
1.07585
1.04221
1.01058
0.980781
0.952666
0.926096
0.900948
0.877111
0.854487
0.832987
0.812528
0.793038
0.774449
0.756703
0.739742
0.723516
0.707979
0.693088
0.678804
0.665091
0.651915
0.639246
0.627055
0.615316
0.604005
0.593097
0.582574
0.572414
0.562599
0.553112
0.543937
0.535059
0.526463
0.518137
0.510069
0.502246
0.494657
0.487292
0.480142
0.473197
0.466449
0.459889
0.45351
0.447304
0.441264
0.435384
0.429658
0.424079
0.418643
0.413343
0.408176
0.40321
8.07067
6.69608
5.69885
4.94658
4.36122
3.89414
3.51361
3.19816
2.93275
2.7066
2.51176
2.34227
2.19357
2.06212
1.94514
1.8404
1.74609
1.66076
1.58321
1.51242
1.44757
1.38794
1.33294
1.28205
1.23484
1.19092
1.14997
1.1117
1.07585
1.04221
1.01058
0.980779
0.952664
0.926094
0.900945
0.877109
0.854485
0.832984
0.812525
0.793035
0.774447
0.7567
0.739739
0.723513
0.707976
0.693086
0.678802
0.665088
0.651913
0.639244
0.627053
0.615314
0.604003
0.593096
0.582572
0.572412
0.562597
0.55311
0.543935
0.535057
0.526462
0.518136
0.510067
0.502244
0.494655
0.487291
0.480141
0.473196
0.466448
0.459888
0.453508
0.447302
0.441263
0.435383
0.429657
0.424078
0.418642
0.413342
0.408175
0.403209
8.07067
6.69608
5.69885
4.94658
4.36122
3.89414
3.51361
3.19816
2.93275
2.7066
2.51176
2.34227
2.19357
2.06212
1.94514
1.8404
1.74609
1.66076
1.58321
1.51242
1.44757
1.38794
1.33294
1.28205
1.23484
1.19092
1.14997
1.1117
1.07585
1.04221
1.01057
0.980777
0.952662
0.926091
0.900943
0.877106
0.854482
0.832981
0.812523
0.793033
0.774444
0.756698
0.739737
0.723511
0.707974
0.693083
0.678799
0.665086
0.651911
0.639242
0.627051
0.615312
0.604001
0.593094
0.58257
0.57241
0.562595
0.553108
0.543933
0.535055
0.52646
0.518134
0.510066
0.502243
0.494654
0.48729
0.48014
0.473195
0.466446
0.459887
0.453507
0.447301
0.441262
0.435382
0.429656
0.424077
0.418641
0.413341
0.408174
0.403208
8.07067
6.69608
5.69885
4.94658
4.36122
3.89414
3.51361
3.19816
2.93275
2.7066
2.51176
2.34227
2.19357
2.06212
1.94514
1.8404
1.74609
1.66076
1.58321
1.51242
1.44757
1.38794
1.33294
1.28205
1.23484
1.19092
1.14997
1.1117
1.07585
1.04221
1.01057
0.980775
0.95266
0.926089
0.900941
0.877104
0.85448
0.832979
0.81252
0.79303
0.774442
0.756695
0.739735
0.723509
0.707972
0.693081
0.678797
0.665084
0.651909
0.63924
0.627049
0.615311
0.603999
0.593092
0.582568
0.572409
0.562594
0.553107
0.543932
0.535054
0.526459
0.518133
0.510065
0.502241
0.494653
0.487288
0.480138
0.473194
0.466445
0.459885
0.453506
0.4473
0.441261
0.435381
0.429655
0.424076
0.41864
0.41334
0.408173
0.403207
8.07067
6.69608
5.69885
4.94658
4.36122
3.89414
3.51361
3.19816
2.93275
2.7066
2.51176
2.34227
2.19357
2.06212
1.94514
1.8404
1.74609
1.66076
1.58321
1.51242
1.44757
1.38794
1.33294
1.28205
1.23484
1.19092
1.14997
1.1117
1.07585
1.0422
1.01057
0.980774
0.952658
0.926088
0.900939
0.877102
0.854478
0.832977
0.812518
0.793028
0.77444
0.756693
0.739733
0.723507
0.70797
0.693079
0.678796
0.665083
0.651907
0.639238
0.627048
0.615309
0.603997
0.593091
0.582567
0.572407
0.562592
0.553106
0.543931
0.535053
0.526458
0.518132
0.510063
0.50224
0.494652
0.487287
0.480137
0.473192
0.466444
0.459884
0.453505
0.447299
0.44126
0.43538
0.429654
0.424075
0.418639
0.413339
0.408172
0.403206
8.07067
6.69608
5.69885
4.94658
4.36122
3.89414
3.51361
3.19816
2.93275
2.7066
2.51176
2.34227
2.19357
2.06213
1.94514
1.8404
1.74609
1.66076
1.58321
1.51242
1.44757
1.38794
1.33294
1.28205
1.23484
1.19092
1.14997
1.1117
1.07585
1.0422
1.01057
0.980772
0.952656
0.926086
0.900937
0.8771
0.854476
0.832975
0.812516
0.793026
0.774438
0.756692
0.739731
0.723505
0.707968
0.693078
0.678794
0.665081
0.651905
0.639237
0.627046
0.615307
0.603996
0.593089
0.582566
0.572406
0.562591
0.553104
0.543929
0.535052
0.526456
0.518131
0.510062
0.502239
0.494651
0.487286
0.480136
0.473192
0.466443
0.459884
0.453504
0.447298
0.441259
0.435379
0.429653
0.424075
0.418638
0.413338
0.408172
0.403206
8.07067
6.69608
5.69885
4.94658
4.36122
3.89414
3.51361
3.19816
2.93275
2.7066
2.51176
2.34227
2.19357
2.06213
1.94514
1.8404
1.74609
1.66076
1.58321
1.51242
1.44757
1.38794
1.33294
1.28205
1.23484
1.19092
1.14997
1.11169
1.07585
1.0422
1.01057
0.980771
0.952655
0.926084
0.900936
0.877099
0.854475
0.832974
0.812515
0.793025
0.774437
0.75669
0.739729
0.723504
0.707967
0.693076
0.678792
0.665079
0.651904
0.639235
0.627045
0.615306
0.603995
0.593088
0.582564
0.572405
0.56259
0.553103
0.543928
0.535051
0.526455
0.51813
0.510061
0.502238
0.49465
0.487285
0.480136
0.473191
0.466443
0.459883
0.453504
0.447298
0.441258
0.435379
0.429652
0.424074
0.418638
0.413338
0.408171
0.403205
8.07067
6.69608
5.69885
4.94658
4.36122
3.89414
3.51361
3.19816
2.93275
2.7066
2.51176
2.34227
2.19357
2.06212
1.94514
1.8404
1.74609
1.66076
1.58321
1.51242
1.44757
1.38794
1.33294
1.28205
1.23484
1.19092
1.14997
1.11169
1.07585
1.0422
1.01057
0.98077
0.952654
0.926083
0.900935
0.877098
0.854474
0.832972
0.812514
0.793023
0.774435
0.756689
0.739728
0.723502
0.707966
0.693075
0.678791
0.665079
0.651903
0.639234
0.627044
0.615305
0.603994
0.593087
0.582564
0.572404
0.562589
0.553103
0.543928
0.53505
0.526455
0.518129
0.510061
0.502238
0.494649
0.487285
0.480135
0.47319
0.466442
0.459882
0.453503
0.447297
0.441258
0.435378
0.429652
0.424074
0.418637
0.413338
0.408171
0.403205
8.07067
6.69608
5.69885
4.94658
4.36122
3.89414
3.51361
3.19816
2.93275
2.7066
2.51176
2.34227
2.19357
2.06213
1.94514
1.8404
1.74609
1.66076
1.58321
1.51242
1.44757
1.38794
1.33294
1.28205
1.23484
1.19092
1.14997
1.11169
1.07585
1.0422
1.01057
0.980771
0.952655
0.926084
0.900936
0.877099
0.854475
0.832974
0.812515
0.793025
0.774437
0.75669
0.739729
0.723504
0.707967
0.693076
0.678792
0.665079
0.651904
0.639235
0.627045
0.615306
0.603995
0.593088
0.582564
0.572405
0.56259
0.553103
0.543928
0.535051
0.526455
0.51813
0.510061
0.502238
0.49465
0.487285
0.480136
0.473191
0.466443
0.459883
0.453504
0.447298
0.441258
0.435379
0.429652
0.424074
0.418638
0.413338
0.408171
0.403205
8.07067
6.69608
5.69885
4.94658
4.36122
3.89414
3.51361
3.19816
2.93275
2.7066
2.51176
2.34227
2.19357
2.06213
1.94514
1.8404
1.74609
1.66076
1.58321
1.51242
1.44757
1.38794
1.33294
1.28205
1.23484
1.19092
1.14997
1.11169
1.07585
1.0422
1.01057
0.980772
0.952656
0.926086
0.900937
0.8771
0.854476
0.832975
0.812516
0.793026
0.774438
0.756691
0.73973
0.723505
0.707968
0.693077
0.678794
0.665081
0.651905
0.639236
0.627046
0.615307
0.603996
0.593089
0.582565
0.572405
0.562591
0.553104
0.543929
0.535051
0.526456
0.51813
0.510062
0.502239
0.49465
0.487286
0.480136
0.473191
0.466443
0.459883
0.453504
0.447298
0.441259
0.435379
0.429653
0.424074
0.418638
0.413338
0.408171
0.403205
8.07067
6.69608
5.69885
4.94658
4.36122
3.89414
3.51361
3.19816
2.93275
2.7066
2.51176
2.34227
2.19357
2.06213
1.94514
1.8404
1.74609
1.66076
1.58321
1.51242
1.44757
1.38794
1.33294
1.28205
1.23484
1.19092
1.14997
1.1117
1.07585
1.0422
1.01057
0.980773
0.952658
0.926087
0.900939
0.877102
0.854478
0.832977
0.812518
0.793028
0.77444
0.756693
0.739732
0.723507
0.70797
0.693079
0.678795
0.665082
0.651907
0.639238
0.627047
0.615308
0.603997
0.59309
0.582567
0.572407