/*--------------------------------*- C++ -*----------------------------------*\
| =========                 |                                                 |
| \\      /  F ield         | OpenFOAM: The Open Source CFD Toolbox           |
|  \\    /   O peration     | Version:  2512                                  |
|   \\  /    A nd           | Website:  www.openfoam.com                      |
|    \\/     M anipulation  |                                                 |
\*---------------------------------------------------------------------------*/
FoamFile
{
    version     2.0;
    format      ascii;
    arch        "LSB;label=32;scalar=64";
    class       volScalarField;
    location    "100";
    object      p;
}
// * * * * * * * * * * * * * * * * * * * * * * * * * * * * * * * * * * * * * //

dimensions      [0 2 -2 0 0 0 0];

internalField   nonuniform List<scalar> 
220594
(
4.22245e-06
4.21924e-06
4.21087e-06
4.19729e-06
4.17815e-06
4.15257e-06
4.11939e-06
4.07728e-06
4.02465e-06
3.95962e-06
3.88e-06
3.7833e-06
3.66673e-06
3.52724e-06
3.36164e-06
3.16678e-06
2.93969e-06
2.67792e-06
2.37976e-06
2.04486e-06
1.67464e-06
1.27284e-06
8.45814e-07
4.02646e-07
-4.47682e-08
-4.82305e-07
-8.94265e-07
-1.26479e-06
-1.57945e-06
-1.82695e-06
-2.00049e-06
-2.09854e-06
-2.12482e-06
-2.08753e-06
-1.99798e-06
-1.86901e-06
-1.71347e-06
-1.54308e-06
-1.36775e-06
-1.19525e-06
-1.03122e-06
-8.79419e-07
-7.41981e-07
-6.1979e-07
-5.12804e-07
-4.20339e-07
-3.41313e-07
-2.74426e-07
-2.18288e-07
-1.71525e-07
-1.32829e-07
-1.01006e-07
-7.49868e-08
-5.38322e-08
-3.67279e-08
-2.29762e-08
-1.19881e-08
-3.27325e-09
3.57015e-09
8.86815e-09
1.28841e-08
1.58323e-08
1.78883e-08
1.91975e-08
1.98802e-08
2.00352e-08
1.97427e-08
1.90684e-08
1.80674e-08
1.67896e-08
1.52838e-08
1.36002e-08
1.17905e-08
9.90678e-09
7.9984e-09
6.10979e-09
4.28096e-09
2.53642e-09
1.03653e-09
-7.92836e-10
4.22346e-06
4.22027e-06
4.21198e-06
4.19854e-06
4.17959e-06
4.15425e-06
4.12137e-06
4.07963e-06
4.02743e-06
3.96289e-06
3.88383e-06
3.78776e-06
3.67186e-06
3.53307e-06
3.36818e-06
3.17396e-06
2.9474e-06
2.68595e-06
2.38783e-06
2.05257e-06
1.68151e-06
1.27828e-06
8.49176e-07
4.03344e-07
-4.72501e-08
-4.88234e-07
-9.03648e-07
-1.27728e-06
-1.59436e-06
-1.8433e-06
-2.01716e-06
-2.1144e-06
-2.13891e-06
-2.09918e-06
-2.00687e-06
-1.87511e-06
-1.717e-06
-1.54443e-06
-1.36736e-06
-1.19357e-06
-1.02867e-06
-8.76353e-07
-7.38679e-07
-6.16464e-07
-5.096e-07
-4.17353e-07
-3.38601e-07
-2.72009e-07
-2.16171e-07
-1.69692e-07
-1.3126e-07
-9.96753e-08
-7.38679e-08
-5.28991e-08
-3.59562e-08
-2.2343e-08
-1.14722e-08
-2.85551e-09
3.90621e-09
9.13641e-09
1.30958e-08
1.59968e-08
1.80135e-08
1.92909e-08
1.99485e-08
2.0085e-08
1.978e-08
1.90983e-08
1.80939e-08
1.68156e-08
1.53112e-08
1.36302e-08
1.18235e-08
9.94299e-09
8.03777e-09
6.15193e-09
4.3245e-09
2.5798e-09
1.06754e-09
-7.8159e-10
4.22545e-06
4.22232e-06
4.2142e-06
4.20102e-06
4.18243e-06
4.15757e-06
4.12528e-06
4.08425e-06
4.03289e-06
3.96933e-06
3.89139e-06
3.79654e-06
3.68198e-06
3.54459e-06
3.38109e-06
3.18816e-06
2.96266e-06
2.70187e-06
2.40384e-06
2.06791e-06
1.69519e-06
1.28915e-06
8.55985e-07
4.04873e-07
-5.19973e-08
-4.99843e-07
-9.22127e-07
-1.30196e-06
-1.62387e-06
-1.87571e-06
-2.05021e-06
-2.14584e-06
-2.16684e-06
-2.12226e-06
-2.02444e-06
-1.88715e-06
-1.72395e-06
-1.54705e-06
-1.36655e-06
-1.19023e-06
-1.02363e-06
-8.70295e-07
-7.32164e-07
-6.09904e-07
-5.03286e-07
-4.11473e-07
-3.3326e-07
-2.67255e-07
-2.12004e-07
-1.66088e-07
-1.28176e-07
-9.70601e-08
-7.16687e-08
-5.10647e-08
-3.44378e-08
-2.10949e-08
-1.04525e-08
-2.02676e-09
4.57622e-09
9.67436e-09
1.35234e-08
1.63317e-08
1.8271e-08
1.94848e-08
2.0092e-08
2.01903e-08
1.9858e-08
1.91581e-08
1.81426e-08
1.68585e-08
1.53516e-08
1.36703e-08
1.18647e-08
9.98591e-09
8.08267e-09
6.199e-09
4.37364e-09
2.63125e-09
1.11451e-09
-7.1325e-10
4.22839e-06
4.22535e-06
4.21748e-06
4.20469e-06
4.18664e-06
4.16246e-06
4.13104e-06
4.09106e-06
4.04094e-06
3.97882e-06
3.90252e-06
3.80951e-06
3.69693e-06
3.56161e-06
3.40019e-06
3.20919e-06
2.98529e-06
2.72553e-06
2.42768e-06
2.09078e-06
1.71565e-06
1.30547e-06
8.66284e-07
4.07334e-07
-5.88872e-08
-5.16989e-07
-9.49575e-07
-1.33871e-06
-1.66789e-06
-1.92409e-06
-2.09953e-06
-2.19271e-06
-2.2084e-06
-2.15652e-06
-2.05044e-06
-1.90486e-06
-1.73409e-06
-1.55077e-06
-1.3652e-06
-1.18515e-06
-1.01605e-06
-8.61258e-07
-7.22479e-07
-6.00179e-07
-4.93944e-07
-4.02784e-07
-3.25378e-07
-2.60244e-07
-2.05866e-07
-1.60781e-07
-1.23636e-07
-9.321e-08
-6.84307e-08
-4.83622e-08
-3.21986e-08
-1.92513e-08
-8.94262e-09
-7.95574e-10
5.57541e-09
1.04801e-08
1.41666e-08
1.68379e-08
1.86623e-08
1.97814e-08
2.03127e-08
2.03528e-08
1.99777e-08
1.92481e-08
1.82127e-08
1.6916e-08
1.54017e-08
1.37165e-08
1.19094e-08
1.0031e-08
8.12931e-09
6.24839e-09
4.42672e-09
2.68876e-09
1.16962e-09
-6.45748e-10
4.23219e-06
4.22928e-06
4.22172e-06
4.20944e-06
4.19208e-06
4.16881e-06
4.13851e-06
4.09988e-06
4.05138e-06
3.99114e-06
3.91699e-06
3.82637e-06
3.71638e-06
3.58379e-06
3.4251e-06
3.23667e-06
3.01491e-06
2.75655e-06
2.45902e-06
2.12093e-06
1.7427e-06
1.32715e-06
8.80118e-07
4.10894e-07
-6.76375e-08
-5.39305e-07
-9.85563e-07
-1.38709e-06
-1.72595e-06
-1.98792e-06
-2.16458e-06
-2.25446e-06
-2.26301e-06
-2.20139e-06
-2.08432e-06
-1.92778e-06
-1.74703e-06
-1.5553e-06
-1.36312e-06
-1.17826e-06
-1.00596e-06
-8.49312e-07
-7.09739e-07
-5.8743e-07
-4.81727e-07
-3.91445e-07
-3.15107e-07
-2.51119e-07
-1.97883e-07
-1.53884e-07
-1.17737e-07
-8.82093e-08
-6.4225e-08
-4.48516e-08
-2.92883e-08
-1.6853e-08
-6.97578e-09
8.1093e-10
6.88174e-09
1.15353e-08
1.50103e-08
1.75028e-08
1.91768e-08
2.01716e-08
2.06032e-08
2.05663e-08
2.01341e-08
1.93636e-08
1.83e-08
1.69843e-08
1.54575e-08
1.37649e-08
1.1954e-08
1.00747e-08
8.17445e-09
6.29684e-09
4.48018e-09
2.74813e-09
1.22827e-09
-5.84975e-10
4.23678e-06
4.23401e-06
4.22684e-06
4.21517e-06
4.19865e-06
4.17645e-06
4.14751e-06
4.11053e-06
4.06398e-06
4.00603e-06
3.93448e-06
3.84677e-06
3.73995e-06
3.61071e-06
3.45538e-06
3.27012e-06
3.05104e-06
2.79449e-06
2.49745e-06
2.15803e-06
1.77613e-06
1.35413e-06
8.97573e-07
4.15791e-07
-7.78788e-08
-5.66315e-07
-1.02955e-06
-1.44652e-06
-1.79745e-06
-2.06663e-06
-2.24476e-06
-2.33043e-06
-2.33001e-06
-2.25619e-06
-2.12544e-06
-1.95535e-06
-1.76234e-06
-1.56034e-06
-1.36015e-06
-1.16949e-06
-9.93373e-07
-8.34552e-07
-6.9409e-07
-5.71833e-07
-4.66827e-07
-3.77648e-07
-3.02635e-07
-2.40055e-07
-1.88216e-07
-1.4554e-07
-1.10607e-07
-8.21687e-08
-5.91476e-08
-4.06154e-08
-2.57777e-08
-1.39604e-08
-4.60312e-09
2.74956e-09
8.45866e-09
1.28093e-08
1.60287e-08
1.83047e-08
1.97965e-08
2.0641e-08
2.09521e-08
2.08221e-08
2.03205e-08
1.95e-08
1.84011e-08
1.7061e-08
1.55178e-08
1.38148e-08
1.19982e-08
1.01168e-08
8.21751e-09
6.34326e-09
4.53186e-09
2.80569e-09
1.28514e-09
-5.344e-10
4.24203e-06
4.23943e-06
4.2327e-06
4.22173e-06
4.20617e-06
4.18522e-06
4.15783e-06
4.12275e-06
4.07846e-06
4.02314e-06
3.9546e-06
3.87028e-06
3.76715e-06
3.64181e-06
3.49043e-06
3.30892e-06
3.09305e-06
2.83873e-06
2.54242e-06
2.20163e-06
1.81563e-06
1.38624e-06
9.18673e-07
4.22248e-07
-8.91981e-08
-5.97448e-07
-1.08085e-06
-1.51621e-06
-1.88157e-06
-2.15933e-06
-2.33916e-06
-2.4197e-06
-2.40846e-06
-2.32001e-06
-2.17299e-06
-1.98686e-06
-1.77947e-06
-1.5655e-06
-1.35606e-06
-1.15877e-06
-9.78345e-07
-8.17124e-07
-6.75739e-07
-5.53632e-07
-4.49504e-07
-3.61654e-07
-2.8821e-07
-2.27285e-07
-1.77077e-07
-1.35939e-07
-1.02412e-07
-7.52329e-08
-5.33233e-08
-3.57602e-08
-2.17575e-08
-1.065e-08
-1.88897e-09
4.96679e-09
1.0262e-08
1.4266e-08
1.71926e-08
1.92206e-08
2.05039e-08
2.11767e-08
2.13507e-08
2.1115e-08
2.05347e-08
1.96573e-08
1.8518e-08
1.71494e-08
1.55866e-08
1.38705e-08
1.20463e-08
1.01616e-08
8.26218e-09
6.3904e-09
4.58328e-09
2.86162e-09
1.33927e-09
-4.91743e-10
4.24782e-06
4.24541e-06
4.23917e-06
4.22898e-06
4.21448e-06
4.19491e-06
4.16924e-06
4.13626e-06
4.09447e-06
4.04208e-06
3.97692e-06
3.89637e-06
3.79739e-06
3.67644e-06
3.52954e-06
3.35232e-06
3.14017e-06
2.88852e-06
2.59323e-06
2.25111e-06
1.86071e-06
1.42322e-06
9.4339e-07
4.3049e-07
-1.01121e-07
-6.32002e-07
-1.13857e-06
-1.59517e-06
-1.97721e-06
-2.26488e-06
-2.4466e-06
-2.52106e-06
-2.49716e-06
-2.39174e-06
-2.22595e-06
-2.02151e-06
-1.79781e-06
-1.57041e-06
-1.35068e-06
-1.1461e-06
-9.60998e-07
-7.97244e-07
-6.54962e-07
-5.33135e-07
-4.30076e-07
-3.43776e-07
-2.7213e-07
-2.13081e-07
-1.6471e-07
-1.25296e-07
-9.33394e-08
-6.75638e-08
-4.68903e-08
-3.04037e-08
-1.73267e-08
-7.00473e-09
1.09799e-09
7.40623e-09
1.2246e-08
1.58685e-08
1.84728e-08
2.02278e-08
2.12821e-08
2.17668e-08
2.17912e-08
2.14407e-08
2.07752e-08
1.9836e-08
1.86523e-08
1.72521e-08
1.56666e-08
1.3935e-08
1.21007e-08
1.02105e-08
8.30926e-09
6.43811e-09
4.63326e-09
2.91384e-09
1.38808e-09
-4.56297e-10
4.25401e-06
4.2518e-06
4.24608e-06
4.23672e-06
4.22337e-06
4.20527e-06
4.18146e-06
4.15073e-06
4.11165e-06
4.06243e-06
4.0009e-06
3.92446e-06
3.83e-06
3.71387e-06
3.5719e-06
3.39943e-06
3.19148e-06
2.94293e-06
2.64898e-06
2.30568e-06
1.91077e-06
1.46466e-06
9.71586e-07
4.40691e-07
-1.13149e-07
-6.69175e-07
-1.20165e-06
-1.68211e-06
-2.08294e-06
-2.38176e-06
-2.56551e-06
-2.63296e-06
-2.59463e-06
-2.47001e-06
-2.28319e-06
-2.05838e-06
-1.81673e-06
-1.57469e-06
-1.34385e-06
-1.13151e-06
-9.41521e-07
-7.75201e-07
-6.32109e-07
-5.10719e-07
-4.08923e-07
-3.2438e-07
-2.54736e-07
-1.97755e-07
-1.51395e-07
-1.13856e-07
-8.36024e-08
-5.93432e-08
-4.00032e-08
-2.4676e-08
-1.25943e-08
-3.11485e-09
4.28362e-09
1.00075e-08
1.43619e-08
1.75778e-08
1.98384e-08
2.13025e-08
2.2113e-08
2.23982e-08
2.22648e-08
2.17937e-08
2.1039e-08
2.0035e-08
1.88044e-08
1.73696e-08
1.57587e-08
1.40084e-08
1.21613e-08
1.02631e-08
8.35742e-09
6.48453e-09
4.67952e-09
2.95996e-09
1.4295e-09
-4.27443e-10
4.26044e-06
4.25845e-06
4.25327e-06
4.24478e-06
4.23261e-06
4.21607e-06
4.19419e-06
4.16583e-06
4.12958e-06
4.08369e-06
4.026e-06
3.95391e-06
3.86423e-06
3.75323e-06
3.61655e-06
3.44925e-06
3.24591e-06
3.00087e-06
2.7086e-06
2.36436e-06
1.96496e-06
1.50997e-06
1.00299e-06
4.52946e-07
-1.24782e-07
-7.08059e-07
-1.26881e-06
-1.77545e-06
-2.19698e-06
-2.50805e-06
-2.69393e-06
-2.75348e-06
-2.69907e-06
-2.55324e-06
-2.34338e-06
-2.09649e-06
-1.83558e-06
-1.578e-06
-1.33552e-06
-1.11515e-06
-9.20204e-07
-7.51379e-07
-6.07616e-07
-4.86839e-07
-3.86493e-07
-3.0389e-07
-2.36419e-07
-1.81659e-07
-1.37441e-07
-1.01891e-07
-7.3433e-08
-5.07694e-08
-3.28297e-08
-1.8718e-08
-7.67787e-09
9.22184e-10
7.58777e-09
1.2705e-08
1.65561e-08
1.93504e-08
2.12544e-08
2.24164e-08
2.29743e-08
2.30539e-08
2.27588e-08
2.21651e-08
2.13201e-08
2.02503e-08
1.89711e-08
1.74997e-08
1.58606e-08
1.40887e-08
1.22256e-08
1.03163e-08
8.4036e-09
6.52658e-09
4.71923e-09
2.99774e-09
1.46221e-09
-4.04609e-10
4.26696e-06
4.26518e-06
4.26056e-06
4.25295e-06
4.242e-06
4.22703e-06
4.20713e-06
4.18119e-06
4.14783e-06
4.10536e-06
4.05162e-06
3.98399e-06
3.89928e-06
3.79362e-06
3.66248e-06
3.50063e-06
3.30223e-06
3.06105e-06
2.77083e-06
2.42594e-06
2.02224e-06
1.55835e-06
1.03713e-06
4.6723e-07
-1.35552e-07
-7.4767e-07
-1.33857e-06
-1.87331e-06
-2.31712e-06
-2.64137e-06
-2.82942e-06
-2.88025e-06
-2.80833e-06
-2.6396e-06
-2.40509e-06
-2.13483e-06
-1.85374e-06
-1.58008e-06
-1.32571e-06
-1.09726e-06
-8.97439e-07
-7.26259e-07
-5.82003e-07
-4.62021e-07
-3.63293e-07
-2.82778e-07
-2.17607e-07
-1.65171e-07
-1.23181e-07
-8.96842e-08
-6.30749e-08
-4.20484e-08
-2.55428e-08
-1.26741e-08
-2.69665e-09
5.0086e-09
1.09308e-08
1.54344e-08
1.87767e-08
2.11443e-08
2.26868e-08
2.35424e-08
2.38447e-08
2.37173e-08
2.32607e-08
2.25457e-08
2.16118e-08
2.04771e-08
1.91492e-08
1.76397e-08
1.59698e-08
1.41731e-08
1.22906e-08
1.0367e-08
8.44456e-09
6.56115e-09
4.74978e-09
3.02538e-09
1.48537e-09
-3.87392e-10
4.27341e-06
4.27184e-06
4.26777e-06
4.26104e-06
4.25129e-06
4.23788e-06
4.21995e-06
4.19642e-06
4.16596e-06
4.12689e-06
4.07711e-06
4.01399e-06
3.93428e-06
3.83405e-06
3.70857e-06
3.55233e-06
3.3591e-06
3.12205e-06
2.83421e-06
2.48901e-06
2.08133e-06
1.60877e-06
1.07336e-06
4.83361e-07
-1.45059e-07
-7.86973e-07
-1.40928e-06
-1.97346e-06
-2.44071e-06
-2.77882e-06
-2.96906e-06
-3.0105e-06
-2.91994e-06
-2.72704e-06
-2.46678e-06
-2.17237e-06
-1.87069e-06
-1.5808e-06
-1.31458e-06
-1.07821e-06
-8.73737e-07
-7.00426e-07
-5.55878e-07
-4.3686e-07
-3.39885e-07
-2.6156e-07
-1.98761e-07
-1.487e-07
-1.08967e-07
-7.75407e-08
-5.27863e-08
-3.33982e-08
-1.83257e-08
-6.69694e-09
2.22249e-09
9.03983e-09
1.42271e-08
1.81255e-08
2.09665e-08
2.29131e-08
2.40977e-08
2.46496e-08
2.46991e-08
2.43682e-08
2.37546e-08
2.29232e-08
2.1905e-08
2.07085e-08
1.93334e-08
1.77856e-08
1.60831e-08
1.42587e-08
1.23537e-08
1.04128e-08
8.47795e-09
6.5863e-09
4.76983e-09
3.04241e-09
1.49946e-09
-3.74796e-10
4.27963e-06
4.27826e-06
4.27472e-06
4.26884e-06
4.26026e-06
4.24837e-06
4.23234e-06
4.21115e-06
4.1835e-06
4.14777e-06
4.10185e-06
4.04314e-06
3.96836e-06
3.87349e-06
3.75364e-06
3.60304e-06
3.41505e-06
3.18232e-06
2.8971e-06
2.55195e-06
2.14071e-06
1.65994e-06
1.11076e-06
5.00968e-07
-1.53008e-07
-8.24916e-07
-1.4791e-06
-2.07337e-06
-2.56468e-06
-2.91702e-06
-3.10939e-06
-3.14099e-06
-3.0311e-06
-2.81334e-06
-2.52687e-06
-2.20814e-06
-1.88596e-06
-1.58012e-06
-1.30243e-06
-1.05852e-06
-8.49723e-07
-6.74555e-07
-5.29924e-07
-4.1201e-07
-3.16872e-07
-2.40779e-07
-1.80362e-07
-1.32663e-07
-9.51573e-08
-6.5763e-08
-4.28218e-08
-2.50316e-08
-1.13548e-08
-9.32469e-10
6.9599e-09
1.29182e-08
1.73973e-08
2.07142e-08
2.30736e-08
2.46143e-08
2.54526e-08
2.571e-08
2.55145e-08
2.49878e-08
2.42249e-08
2.32846e-08
2.21886e-08
2.09354e-08
1.95162e-08
1.79309e-08
1.6195e-08
1.43408e-08
1.24104e-08
1.04495e-08
8.50005e-09
6.59871e-09
4.77667e-09
3.0469e-09
1.50329e-09
-3.67473e-10
4.28546e-06
4.28428e-06
4.28124e-06
4.27615e-06
4.26868e-06
4.25821e-06
4.24398e-06
4.225e-06
4.20002e-06
4.16744e-06
4.1252e-06
4.07069e-06
4.00062e-06
3.9109e-06
3.79649e-06
3.65138e-06
3.46857e-06
3.24017e-06
2.95774e-06
2.61298e-06
2.19868e-06
1.71036e-06
1.14821e-06
5.1948e-07
-1.59242e-07
-8.6048e-07
-1.5461e-06
-2.17024e-06
-2.68556e-06
-3.0521e-06
-3.24652e-06
-3.26811e-06
-3.13875e-06
-2.89616e-06
-2.58376e-06
-2.24124e-06
-1.89924e-06
-1.57819e-06
-1.2897e-06
-1.03881e-06
-8.26129e-07
-6.49411e-07
-5.04886e-07
-3.88172e-07
-2.94894e-07
-2.21005e-07
-1.62909e-07
-1.1749e-07
-8.21199e-08
-5.46624e-08
-3.34429e-08
-1.7167e-08
-4.81179e-09
4.46928e-09
1.13922e-08
1.65427e-08
2.03588e-08
2.31335e-08
2.50436e-08
2.62045e-08
2.6717e-08
2.6696e-08
2.62692e-08
2.55588e-08
2.46579e-08
2.36189e-08
2.24539e-08
2.11511e-08
1.96925e-08
1.80723e-08
1.63035e-08
1.44187e-08
1.24611e-08
1.04781e-08
8.51228e-09
6.60021e-09
4.77253e-09
3.04146e-09
1.49964e-09
-3.63302e-10
4.29076e-06
4.28976e-06
4.28717e-06
4.28281e-06
4.27633e-06
4.26717e-06
4.25459e-06
4.23763e-06
4.21508e-06
4.18539e-06
4.14654e-06
4.09591e-06
4.0302e-06
3.94526e-06
3.83593e-06
3.696e-06
3.51811e-06
3.29391e-06
3.01431e-06
2.67018e-06
2.25337e-06
1.75835e-06
1.18438e-06
5.38123e-07
-1.63761e-07
-8.9272e-07
-1.60829e-06
-2.26109e-06
-2.79957e-06
-3.17982e-06
-3.37614e-06
-3.38793e-06
-3.23963e-06
-2.97309e-06
-2.63591e-06
-2.27089e-06
-1.91039e-06
-1.57529e-06
-1.27695e-06
-1.01982e-06
-8.03761e-07
-6.25806e-07
-4.81539e-07
-3.66056e-07
-2.74586e-07
-2.02795e-07
-1.46882e-07
-1.0359e-07
-7.01997e-08
-4.45277e-08
-2.489e-08
-1.00031e-08
1.13994e-09
9.37449e-09
1.54099e-08
1.98237e-08
2.30382e-08
2.53223e-08
2.68263e-08
2.76423e-08
2.78567e-08
2.75797e-08
2.69399e-08
2.60613e-08
2.50358e-08
2.39098e-08
2.26859e-08
2.13414e-08
1.98495e-08
1.81984e-08
1.63989e-08
1.4484e-08
1.2499e-08
1.04932e-08
8.51025e-09
6.5873e-09
4.75459e-09
3.02383e-09
1.48658e-09
-3.64073e-10
4.29539e-06
4.29454e-06
4.29236e-06
4.28863e-06
4.28303e-06
4.27502e-06
4.26388e-06
4.2487e-06
4.2283e-06
4.20117e-06
4.16529e-06
4.1181e-06
4.05627e-06
3.97559e-06
3.87083e-06
3.73556e-06
3.56216e-06
3.34184e-06
3.06496e-06
2.72163e-06
2.30284e-06
1.8021e-06
1.21779e-06
5.55958e-07
-1.66728e-07
-9.20809e-07
-1.66374e-06
-2.3429e-06
-2.90276e-06
-3.29572e-06
-3.49376e-06
-3.49636e-06
-3.33044e-06
-3.04177e-06
-2.68189e-06
-2.29648e-06
-1.91937e-06
-1.57182e-06
-1.26487e-06
-1.00237e-06
-7.83481e-07
-6.04583e-07
-4.60673e-07
-3.46379e-07
-2.56583e-07
-1.867e-07
-1.32755e-07
-9.13651e-08
-5.9734e-08
-3.5641e-08
-1.73974e-08
-3.73321e-09
6.3425e-09
1.36553e-08
1.89102e-08
2.26785e-08
2.53686e-08
2.72272e-08
2.83789e-08
2.88942e-08
2.88469e-08
2.83434e-08
2.75144e-08
2.64871e-08
2.53529e-08
2.41529e-08
2.28806e-08
2.15032e-08
1.99847e-08
1.83079e-08
1.64813e-08
1.45385e-08
1.25272e-08
1.04989e-08
8.49918e-09
6.5657e-09
4.7288e-09
2.99977e-09
1.46924e-09
-3.66363e-10
4.29924e-06
4.29852e-06
4.29667e-06
4.29347e-06
4.28861e-06
4.28155e-06
4.27161e-06
4.25792e-06
4.23932e-06
4.21433e-06
4.18096e-06
4.13666e-06
4.0781e-06
4.00103e-06
3.90013e-06
3.76885e-06
3.59931e-06
3.38238e-06
3.10793e-06
2.76546e-06
2.34519e-06
1.8398e-06
1.24689e-06
5.71943e-07
-1.68442e-07
-9.44073e-07
-1.71064e-06
-2.41271e-06
-2.99126e-06
-3.39533e-06
-3.59486e-06
-3.58935e-06
-3.40797e-06
-3.09999e-06
-2.72045e-06
-2.31754e-06
-1.92632e-06
-1.56828e-06
-1.25417e-06
-9.87267e-07
-7.66127e-07
-5.86547e-07
-4.43026e-07
-3.298e-07
-2.41459e-07
-1.73214e-07
-1.20944e-07
-8.11643e-08
-5.10147e-08
-2.82452e-08
-1.11669e-08
1.47585e-09
1.06589e-08
1.71999e-08
2.18015e-08
2.50312e-08
2.72859e-08
2.87928e-08
2.96536e-08
2.99195e-08
2.96531e-08
2.89583e-08
2.79689e-08
2.68156e-08
2.55904e-08
2.43302e-08
2.30204e-08
2.16188e-08
2.00813e-08
1.83851e-08
1.65368e-08
1.45706e-08
1.25364e-08
1.04883e-08
8.4737e-09
6.53149e-09
4.69222e-09
2.96691e-09
1.44537e-09
-3.72505e-10
4.30221e-06
4.30159e-06
4.3e-06
4.29721e-06
4.29291e-06
4.28659e-06
4.27759e-06
4.26505e-06
4.24785e-06
4.22452e-06
4.1931e-06
4.15105e-06
4.09504e-06
4.02081e-06
3.92295e-06
3.79481e-06
3.62833e-06
3.41412e-06
3.14167e-06
2.79998e-06
2.37867e-06
1.86977e-06
1.27022e-06
5.85027e-07
-1.69291e-07
-9.62004e-07
-1.74742e-06
-2.46786e-06
-3.06145e-06
-3.47452e-06
-3.67524e-06
-3.66317e-06
-3.46929e-06
-3.14578e-06
-2.75053e-06
-2.33375e-06
-1.93143e-06
-1.56522e-06
-1.24558e-06
-9.75312e-07
-7.5249e-07
-5.72442e-07
-4.29275e-07
-3.16916e-07
-2.29732e-07
-1.62777e-07
-1.1182e-07
-7.32966e-08
-4.42973e-08
-2.25514e-08
-6.37185e-09
5.48329e-09
1.39768e-08
1.99204e-08
2.40159e-08
2.68294e-08
2.87492e-08
2.99869e-08
3.06253e-08
3.06995e-08
3.02629e-08
2.94178e-08
2.83013e-08
2.7048e-08
2.5751e-08
2.44446e-08
2.31076e-08
2.169e-08
2.01404e-08
1.84314e-08
1.65674e-08
1.45833e-08
1.25311e-08
1.0467e-08
8.44076e-09
6.49225e-09
4.65255e-09
2.93254e-09
1.42121e-09
-3.78519e-10
4.30423e-06
4.30368e-06
4.30226e-06
4.29975e-06
4.29584e-06
4.29003e-06
4.28166e-06
4.2699e-06
4.25366e-06
4.23146e-06
4.20138e-06
4.16087e-06
4.10661e-06
4.03432e-06
3.93856e-06
3.81259e-06
3.64824e-06
3.43592e-06
3.16488e-06
2.82378e-06
2.40183e-06
1.89057e-06
1.28649e-06
5.94268e-07
-1.69677e-07
-9.74255e-07
-1.77283e-06
-2.50614e-06
-3.11032e-06
-3.52973e-06
-3.73131e-06
-3.71463e-06
-3.51196e-06
-3.17756e-06
-2.77134e-06
-2.34492e-06
-1.93494e-06
-1.56313e-06
-1.23971e-06
-9.67167e-07
-7.43219e-07
-5.62871e-07
-4.19959e-07
-3.08199e-07
-2.21807e-07
-1.55734e-07
-1.05671e-07
-6.8001e-08
-3.97808e-08
-1.87257e-08
-3.15138e-09
8.17299e-09
1.62002e-08
2.17379e-08
2.54888e-08
2.80187e-08
2.97114e-08
3.07675e-08
3.12562e-08
3.12005e-08
3.06472e-08
2.96974e-08
2.8491e-08
2.71666e-08
2.5819e-08
2.44809e-08
2.3127e-08
2.17012e-08
2.01468e-08
1.84322e-08
1.65602e-08
1.45659e-08
1.25026e-08
1.04288e-08
8.39583e-09
6.44499e-09
4.60785e-09
2.89522e-09
1.3953e-09
-3.86162e-10
4.30524e-06
4.30472e-06
4.30339e-06
4.30103e-06
4.29731e-06
4.29175e-06
4.28371e-06
4.27235e-06
4.25658e-06
4.23496e-06
4.20556e-06
4.16583e-06
4.11246e-06
4.04115e-06
3.94646e-06
3.82159e-06
3.65833e-06
3.44698e-06
3.17667e-06
2.83588e-06
2.4136e-06
1.90115e-06
1.29477e-06
5.98949e-07
-1.69937e-07
-9.80623e-07
-1.78599e-06
-2.52597e-06
-3.13567e-06
-3.5584e-06
-3.76046e-06
-3.7414e-06
-3.5342e-06
-3.19419e-06
-2.78233e-06
-2.35097e-06
-1.93707e-06
-1.56239e-06
-1.23703e-06
-9.63324e-07
-7.38789e-07
-5.58272e-07
-4.15467e-07
-3.03988e-07
-2.17975e-07
-1.52327e-07
-1.02697e-07
-6.54417e-08
-3.75989e-08
-1.68771e-08
-1.59408e-09
9.47408e-09
1.7274e-08
2.26114e-08
2.61902e-08
2.85778e-08
3.01567e-08
3.11225e-08
3.1537e-08
3.14163e-08
3.08025e-08
2.97966e-08
2.85405e-08
2.71757e-08
2.57993e-08
2.4444e-08
2.30825e-08
2.16554e-08
2.01025e-08
1.83893e-08
1.6517e-08
1.45206e-08
1.24542e-08
1.03778e-08
8.34409e-09
6.3954e-09
4.56388e-09
2.8603e-09
1.3721e-09
-3.92777e-10
4.30523e-06
4.30471e-06
4.30338e-06
4.30101e-06
4.29729e-06
4.29173e-06
4.28368e-06
4.27232e-06
4.25655e-06
4.23492e-06
4.20551e-06
4.16578e-06
4.11241e-06
4.04109e-06
3.94639e-06
3.82151e-06
3.65824e-06
3.44688e-06
3.17655e-06
2.83574e-06
2.41344e-06
1.90096e-06
1.29455e-06
5.98683e-07
-1.70258e-07
-9.81013e-07
-1.78646e-06
-2.52654e-06
-3.13632e-06
-3.55914e-06
-3.76126e-06
-3.74225e-06
-3.53507e-06
-3.19507e-06
-2.78321e-06
-2.35184e-06
-1.93791e-06
-1.5632e-06
-1.2378e-06
-9.64036e-07
-7.39444e-07
-5.58865e-07
-4.15997e-07
-3.04454e-07
-2.18381e-07
-1.52679e-07
-1.03001e-07
-6.57034e-08
-3.78222e-08
-1.70651e-08
-1.75039e-09
9.34388e-09
1.71627e-08
2.25116e-08
2.60961e-08
2.84864e-08
3.00674e-08
3.10358e-08
3.14527e-08
3.13325e-08
3.07164e-08
2.97048e-08
2.84408e-08
2.70678e-08
2.56854e-08
2.43277e-08
2.2968e-08
2.15464e-08
2.00013e-08
1.82966e-08
1.64325e-08
1.44432e-08
1.2383e-08
1.03124e-08
8.28487e-09
6.34364e-09
4.52127e-09
2.82851e-09
1.35208e-09
-3.98474e-10
4.30418e-06
4.30363e-06
4.30221e-06
4.2997e-06
4.29578e-06
4.28995e-06
4.28157e-06
4.26981e-06
4.25355e-06
4.23134e-06
4.20125e-06
4.16073e-06
4.10645e-06
4.03414e-06
3.93835e-06
3.81236e-06
3.64797e-06
3.43562e-06
3.16453e-06
2.82338e-06
2.40135e-06
1.89001e-06
1.28583e-06
5.93471e-07
-1.70641e-07
-9.75424e-07
-1.77424e-06
-2.50782e-06
-3.11228e-06
-3.53194e-06
-3.73372e-06
-3.71716e-06
-3.51456e-06
-3.18019e-06
-2.77397e-06
-2.34751e-06
-1.93746e-06
-1.56554e-06
-1.24198e-06
-9.69289e-07
-7.45171e-07
-5.64642e-07
-4.21539e-07
-3.0959e-07
-2.2302e-07
-1.56784e-07
-1.06578e-07
-6.87819e-08
-4.0447e-08
-1.92864e-08
-3.61768e-09
7.78462e-09
1.58684e-08
2.14407e-08
2.52089e-08
2.7747e-08
2.94457e-08
3.05088e-08
3.10039e-08
3.09497e-08
3.03888e-08
2.94218e-08
2.81918e-08
2.68432e-08
2.54776e-08
2.41323e-08
2.27836e-08
2.13739e-08
1.98424e-08
1.81534e-08
1.63059e-08
1.43332e-08
1.22887e-08
1.02327e-08
8.2188e-09
6.29055e-09
4.48087e-09
2.8005e-09
1.33549e-09
-4.03459e-10
4.30213e-06
4.30151e-06
4.29991e-06
4.29712e-06
4.29281e-06
4.28647e-06
4.27745e-06
4.26489e-06
4.24767e-06
4.22432e-06
4.19288e-06
4.15081e-06
4.09477e-06
4.0205e-06
3.92261e-06
3.79442e-06
3.62789e-06
3.41361e-06
3.14108e-06
2.7993e-06
2.37788e-06
1.86884e-06
1.26911e-06
5.83697e-07
-1.70896e-07
-9.63945e-07
-1.74976e-06
-2.47063e-06
-3.06467e-06
-3.47814e-06
-3.67918e-06
-3.66733e-06
-3.47357e-06
-3.15012e-06
-2.75486e-06
-2.33801e-06
-1.93557e-06
-1.56919e-06
-1.24932e-06
-9.78809e-07
-7.5571e-07
-5.75364e-07
-4.31885e-07
-3.19215e-07
-2.31735e-07
-1.64514e-07
-1.13319e-07
-7.4587e-08
-4.53982e-08
-2.34785e-08
-7.14362e-09
4.83993e-09
1.34271e-08
1.94286e-08
2.35537e-08
2.63808e-08
2.831e-08
2.95581e-08
3.02054e-08
3.02804e-08
2.98304e-08
2.89567e-08
2.78013e-08
2.65087e-08
2.51824e-08
2.38641e-08
2.25355e-08
2.1144e-08
1.96322e-08
1.79656e-08
1.61429e-08
1.41959e-08
1.21765e-08
1.01436e-08
8.15035e-09
6.24024e-09
4.44637e-09
2.77947e-09
1.325e-09
-4.05872e-10
4.29913e-06
4.29841e-06
4.29655e-06
4.29334e-06
4.28846e-06
4.28138e-06
4.27142e-06
4.2577e-06
4.23907e-06
4.21405e-06
4.18066e-06
4.13632e-06
4.07772e-06
4.00061e-06
3.89966e-06
3.76831e-06
3.59869e-06
3.38167e-06
3.10711e-06
2.76451e-06
2.34407e-06
1.83849e-06
1.24533e-06
5.70078e-07
-1.70686e-07
-9.46776e-07
-1.71388e-06
-2.41654e-06
-2.99569e-06
-3.40031e-06
-3.60027e-06
-3.59506e-06
-3.41384e-06
-3.10594e-06
-2.72638e-06
-2.32339e-06
-1.932e-06
-1.57373e-06
-1.25933e-06
-9.92082e-07
-7.70564e-07
-5.90576e-07
-4.46629e-07
-3.32976e-07
-2.44229e-07
-1.75615e-07
-1.23017e-07
-8.29474e-08
-5.25355e-08
-2.95267e-08
-1.22349e-08
5.84767e-10
9.89781e-09
1.65203e-08
2.11641e-08
2.44131e-08
2.66797e-08
2.81981e-08
2.90678e-08
2.93317e-08
2.90448e-08
2.83098e-08
2.72671e-08
2.60603e-08
2.47949e-08
2.35182e-08
2.22193e-08
2.08529e-08
1.93671e-08
1.773e-08
1.59404e-08
1.40282e-08
1.20429e-08
1.00413e-08
8.0755e-09
6.1885e-09
4.41345e-09
2.76111e-09
1.31657e-09
-4.0878e-10
4.29526e-06
4.29441e-06
4.29221e-06
4.28846e-06
4.28284e-06
4.2748e-06
4.26362e-06
4.24841e-06
4.22799e-06
4.20081e-06
4.1649e-06
4.11767e-06
4.05578e-06
3.97505e-06
3.87021e-06
3.73486e-06
3.56136e-06
3.34092e-06
3.0639e-06
2.7204e-06
2.3014e-06
1.8004e-06
1.21577e-06
5.53557e-07
-1.69605e-07
-9.24259e-07
-1.66785e-06
-2.34774e-06
-2.90833e-06
-3.30195e-06
-3.50053e-06
-3.5035e-06
-3.3378e-06
-3.04923e-06
-2.68933e-06
-2.30382e-06
-1.92651e-06
-1.57867e-06
-1.27135e-06
-1.00843e-06
-7.89069e-07
-6.09662e-07
-4.6522e-07
-3.50393e-07
-2.60087e-07
-1.89737e-07
-1.35376e-07
-9.36183e-08
-6.16554e-08
-3.72608e-08
-1.8749e-08
-4.86218e-09
5.37857e-09
1.27964e-08
1.81067e-08
2.18999e-08
2.46029e-08
2.64718e-08
2.76294e-08
2.81373e-08
2.8061e-08
2.75056e-08
2.66097e-08
2.55156e-08
2.43313e-08
2.31101e-08
2.18504e-08
2.05161e-08
1.90625e-08
1.74614e-08
1.57119e-08
1.3842e-08
1.18982e-08
9.93477e-09
8.00176e-09
6.1416e-09
4.38732e-09
2.74983e-09
1.31401e-09
-4.09086e-10
4.2906e-06
4.28959e-06
4.28699e-06
4.28261e-06
4.2761e-06
4.2669e-06
4.25428e-06
4.23728e-06
4.2147e-06
4.18497e-06
4.14606e-06
4.09538e-06
4.02961e-06
3.94459e-06
3.83518e-06
3.69515e-06
3.51714e-06
3.29279e-06
3.01301e-06
2.66867e-06
2.2516e-06
1.75626e-06
1.18191e-06
5.35186e-07
-1.67264e-07
-8.96897e-07
-1.61324e-06
-2.26688e-06
-2.8062e-06
-3.18722e-06
-3.38416e-06
-3.39638e-06
-3.24835e-06
-2.98193e-06
-2.64474e-06
-2.2796e-06
-1.91887e-06
-1.58343e-06
-1.28467e-06
-1.02704e-06
-8.10424e-07
-6.31867e-07
-4.86972e-07
-3.70859e-07
-2.78782e-07
-2.06433e-07
-1.50021e-07
-1.06286e-07
-7.24977e-08
-4.64659e-08
-2.65093e-08
-1.1357e-08
-1.55436e-11
8.34719e-09
1.44514e-08
1.88954e-08
2.21224e-08
2.4413e-08
2.59166e-08
2.6717e-08
2.68922e-08
2.65511e-08
2.58312e-08
2.48735e-08
2.37882e-08
2.26361e-08
2.14254e-08
2.01309e-08
1.87161e-08
1.71574e-08
1.54546e-08
1.36339e-08
1.17381e-08
9.81842e-09
7.92281e-09
6.09268e-09
4.36095e-09
2.73878e-09
1.31115e-09
-4.11163e-10
4.28528e-06
4.2841e-06
4.28104e-06
4.27592e-06
4.2684e-06
4.2579e-06
4.24362e-06
4.2246e-06
4.19957e-06
4.16693e-06
4.12464e-06
4.07007e-06
3.99993e-06
3.91012e-06
3.79561e-06
3.65038e-06
3.46743e-06
3.23885e-06
2.95621e-06
2.61118e-06
2.19658e-06
1.70789e-06
1.14529e-06
5.16012e-07
-1.63358e-07
-8.65359e-07
-1.55184e-06
-2.17691e-06
-2.69317e-06
-3.06056e-06
-3.25566e-06
-3.27775e-06
-3.14869e-06
-2.90625e-06
-2.59384e-06
-2.25119e-06
-1.90894e-06
-1.58752e-06
-1.29854e-06
-1.0471e-06
-8.33779e-07
-6.56379e-07
-5.11139e-07
-3.93707e-07
-2.99735e-07
-2.25203e-07
-1.6653e-07
-1.20596e-07
-8.47661e-08
-5.68945e-08
-3.53094e-08
-1.87288e-08
-6.14404e-09
3.2875e-09
1.02923e-08
1.54777e-08
1.93044e-08
2.20789e-08
2.39794e-08
2.51136e-08
2.55746e-08
2.54766e-08
2.49568e-08
2.41552e-08
2.31851e-08
2.21144e-08
2.09624e-08
1.97151e-08
1.83453e-08
1.68345e-08
1.51837e-08
1.34167e-08
1.15733e-08
9.70107e-09
7.84565e-09
6.04732e-09
4.33889e-09
2.73187e-09
1.31157e-09
-4.11871e-10
4.27943e-06
4.27805e-06
4.27449e-06
4.26857e-06
4.25995e-06
4.24801e-06
4.23193e-06
4.21069e-06
4.18299e-06
4.14719e-06
4.10121e-06
4.04243e-06
3.96757e-06
3.87259e-06
3.75263e-06
3.60189e-06
3.41373e-06
3.18079e-06
2.89532e-06
2.54988e-06
2.13828e-06
1.65707e-06
1.10738e-06
4.96977e-07
-1.57722e-07
-8.30469e-07
-1.48559e-06
-2.08086e-06
-2.57318e-06
-2.92643e-06
-3.11954e-06
-3.15169e-06
-3.04214e-06
-2.82455e-06
-2.53808e-06
-2.21921e-06
-1.89675e-06
-1.59051e-06
-1.3123e-06
-1.06777e-06
-8.58272e-07
-6.82349e-07
-5.36928e-07
-4.18218e-07
-3.22307e-07
-2.45494e-07
-1.84425e-07
-1.36145e-07
-9.8121e-08
-6.82624e-08
-4.49129e-08
-2.67825e-08
-1.28475e-08
-2.25392e-09
5.73272e-09
1.17298e-08
1.6216e-08
1.95238e-08
2.18613e-08
2.33615e-08
2.41341e-08
2.43004e-08
2.39985e-08
2.33686e-08
2.25268e-08
2.15487e-08
2.04644e-08
1.92716e-08
1.79524e-08
1.6494e-08
1.48988e-08
1.31888e-08
1.14006e-08
9.57811e-09
7.76465e-09
5.9993e-09
4.31474e-09
2.72293e-09
1.30985e-09
-4.14958e-10
4.27319e-06
4.27161e-06
4.26751e-06
4.26074e-06
4.25095e-06
4.23748e-06
4.21949e-06
4.1959e-06
4.16538e-06
4.12625e-06
4.07639e-06
4.01319e-06
3.93339e-06
3.83304e-06
3.70743e-06
3.55104e-06
3.35761e-06
3.12033e-06
2.8322e-06
2.48666e-06
2.07856e-06
1.60552e-06
1.06953e-06
4.78858e-07
-1.50351e-07
-7.93167e-07
-1.41647e-06
-1.98171e-06
-2.45001e-06
-2.78907e-06
-2.9801e-06
-3.02213e-06
-2.93194e-06
-2.73922e-06
-2.47898e-06
-2.18443e-06
-1.88245e-06
-1.59213e-06
-1.32536e-06
-1.08832e-06
-8.83093e-07
-7.08964e-07
-5.63561e-07
-4.43676e-07
-3.45857e-07
-2.66742e-07
-2.03224e-07
-1.52521e-07
-1.12214e-07
-8.02773e-08
-5.50759e-08
-3.53156e-08
-1.99592e-08
-8.14026e-09
8.84582e-10
7.74354e-09
1.29331e-08
1.68114e-08
1.96157e-08
2.15053e-08
2.26077e-08
2.3053e-08
2.29819e-08
2.25351e-08
2.18323e-08
2.09562e-08
1.99477e-08
1.88157e-08
1.75518e-08
1.6149e-08
1.46114e-08
1.29598e-08
1.12276e-08
9.45546e-09
7.68437e-09
5.95219e-09
4.29147e-09
2.71467e-09
1.30857e-09
-4.18071e-10
4.26672e-06
4.26493e-06
4.26028e-06
4.25262e-06
4.24162e-06
4.22659e-06
4.20662e-06
4.18061e-06
4.14719e-06
4.10464e-06
4.05082e-06
3.98311e-06
3.89829e-06
3.79251e-06
3.66123e-06
3.49919e-06
3.30058e-06
3.05913e-06
2.76859e-06
2.42331e-06
2.01915e-06
1.55473e-06
1.03287e-06
4.62234e-07
-1.41397e-07
-7.54471e-07
-1.34642e-06
-1.88225e-06
-2.32713e-06
-2.65236e-06
-2.84124e-06
-2.89269e-06
-2.82117e-06
-2.65264e-06
-2.41815e-06
-2.14776e-06
-1.86637e-06
-1.59225e-06
-1.33729e-06
-1.10813e-06
-9.07512e-07
-7.35461e-07
-5.90291e-07
-4.69382e-07
-3.69748e-07
-2.88379e-07
-2.22426e-07
-1.69291e-07
-1.26677e-07
-9.26273e-08