/*--------------------------------*- C++ -*----------------------------------*\
| =========                 |                                                 |
| \\      /  F ield         | OpenFOAM: The Open Source CFD Toolbox           |
|  \\    /   O peration     | Version:  2512                                  |
|   \\  /    A nd           | Website:  www.openfoam.com                      |
|    \\/     M anipulation  |                                                 |
\*---------------------------------------------------------------------------*/
FoamFile
{
    version     2.0;
    format      ascii;
    arch        "LSB;label=32;scalar=64";
    class       volScalarField;
    location    "100";
    object      p;
}
// * * * * * * * * * * * * * * * * * * * * * * * * * * * * * * * * * * * * * //

dimensions      [0 2 -2 0 0 0 0];

internalField   nonuniform List<scalar> 
220594
(
2.2163e-05
2.21358e-05
2.20665e-05
2.19547e-05
2.17983e-05
2.15905e-05
2.13223e-05
2.09831e-05
2.05603e-05
2.00392e-05
1.94028e-05
1.86316e-05
1.77042e-05
1.65973e-05
1.52869e-05
1.37495e-05
1.19638e-05
9.91297e-06
7.58739e-06
4.98887e-06
2.13434e-06
-9.40468e-07
-4.17828e-06
-7.49932e-06
-1.08018e-05
-1.39665e-05
-1.68641e-05
-1.93668e-05
-2.13617e-05
-2.27649e-05
-2.35321e-05
-2.36644e-05
-2.32072e-05
-2.22427e-05
-2.08774e-05
-1.92277e-05
-1.74076e-05
-1.5518e-05
-1.36421e-05
-1.1843e-05
-1.01645e-05
-8.63382e-06
-7.26397e-06
-6.05753e-06
-5.00948e-06
-4.10973e-06
-3.34532e-06
-2.7019e-06
-2.16496e-06
-1.72047e-06
-1.35541e-06
-1.05798e-06
-8.17724e-07
-6.25516e-07
-4.73453e-07
-3.54719e-07
-2.63426e-07
-1.94483e-07
-1.43489e-07
-1.06661e-07
-8.07713e-08
-6.30919e-08
-5.13376e-08
-4.36074e-08
-3.83436e-08
-3.43004e-08
-3.05342e-08
-2.63973e-08
-2.15344e-08
-1.58655e-08
-9.55772e-09
-2.9811e-09
3.34611e-09
8.81844e-09
1.2804e-08
1.471e-08
1.40591e-08
1.05477e-08
4.37192e-09
-6.7311e-09
2.2171e-05
2.2144e-05
2.20754e-05
2.19647e-05
2.18097e-05
2.16038e-05
2.13379e-05
2.10015e-05
2.05821e-05
2.00649e-05
1.94329e-05
1.86665e-05
1.77442e-05
1.66426e-05
1.53374e-05
1.38046e-05
1.20224e-05
9.97324e-06
7.64688e-06
5.04423e-06
2.18145e-06
-9.06348e-07
-4.16223e-06
-7.50597e-06
-1.08349e-05
-1.40278e-05
-1.69531e-05
-1.94799e-05
-2.14926e-05
-2.29049e-05
-2.36715e-05
-2.37938e-05
-2.33188e-05
-2.23313e-05
-2.09409e-05
-1.92667e-05
-1.74245e-05
-1.55167e-05
-1.36268e-05
-1.18179e-05
-1.01333e-05
-8.59949e-06
-7.22889e-06
-6.02342e-06
-4.97745e-06
-4.08048e-06
-3.31917e-06
-2.67894e-06
-2.1451e-06
-1.70351e-06
-1.34106e-06
-1.04595e-06
-8.07689e-07
-6.17177e-07
-4.66537e-07
-3.48982e-07
-2.58654e-07
-1.90488e-07
-1.40107e-07
-1.03752e-07
-7.82214e-08
-6.08156e-08
-4.92773e-08
-4.17303e-08
-3.66383e-08
-3.27703e-08
-2.91926e-08
-2.52613e-08
-2.0621e-08
-1.51868e-08
-9.11839e-09
-2.77526e-09
3.33602e-09
8.62251e-09
1.2465e-08
1.42815e-08
1.36028e-08
1.01309e-08
4.05234e-09
-6.74843e-09
2.21867e-05
2.21602e-05
2.20929e-05
2.19844e-05
2.18323e-05
2.163e-05
2.13688e-05
2.1038e-05
2.06252e-05
2.01157e-05
1.94923e-05
1.87354e-05
1.78233e-05
1.67322e-05
1.54373e-05
1.39137e-05
1.21385e-05
1.00929e-05
7.76517e-06
5.15454e-06
2.27559e-06
-8.37855e-07
-4.12941e-06
-7.51827e-06
-1.08997e-05
-1.4149e-05
-1.71294e-05
-1.97045e-05
-2.17528e-05
-2.31835e-05
-2.39491e-05
-2.40513e-05
-2.35408e-05
-2.25075e-05
-2.1067e-05
-1.93438e-05
-1.74578e-05
-1.55138e-05
-1.35962e-05
-1.17678e-05
-1.00711e-05
-8.53121e-06
-7.15919e-06
-5.95565e-06
-4.91388e-06
-4.02242e-06
-3.26728e-06
-2.63338e-06
-2.10567e-06
-1.66982e-06
-1.31258e-06
-1.02205e-06
-7.87778e-07
-6.00662e-07
-4.52883e-07
-3.37713e-07
-2.49347e-07
-1.82767e-07
-1.33642e-07
-9.82565e-08
-7.34616e-08
-5.66106e-08
-4.55008e-08
-3.83052e-08
-3.35282e-08
-2.99686e-08
-2.67122e-08
-2.31248e-08
-1.88529e-08
-1.38065e-08
-8.13458e-09
-2.18142e-09
3.56478e-09
8.53158e-09
1.2121e-08
1.37717e-08
1.30306e-08
9.61082e-09
3.69593e-09
-6.77698e-09
2.22098e-05
2.21841e-05
2.21188e-05
2.20133e-05
2.18655e-05
2.16687e-05
2.14143e-05
2.10917e-05
2.06886e-05
2.01903e-05
1.95797e-05
1.8837e-05
1.79401e-05
1.68646e-05
1.5585e-05
1.40752e-05
1.23107e-05
1.02707e-05
7.94121e-06
5.31911e-06
2.4165e-06
-7.34731e-07
-4.07908e-06
-7.53495e-06
-1.09947e-05
-1.43282e-05
-1.73914e-05
-2.00389e-05
-2.21408e-05
-2.35992e-05
-2.4363e-05
-2.4435e-05
-2.38709e-05
-2.27687e-05
-2.1253e-05
-1.94567e-05
-1.75055e-05
-1.55078e-05
-1.35493e-05
-1.16923e-05
-9.97798e-06
-8.42934e-06
-7.05547e-06
-5.85504e-06
-4.81962e-06
-3.93646e-06
-3.19053e-06
-2.56605e-06
-2.04747e-06
-1.62013e-06
-1.27059e-06
-9.86872e-07
-7.58495e-07
-5.76416e-07
-4.3289e-07
-3.2127e-07
-2.35828e-07
-1.71612e-07
-1.24353e-07
-9.04032e-08
-6.66894e-08
-5.06452e-08
-4.01499e-08
-3.34488e-08
-2.9106e-08
-2.59637e-08
-2.31366e-08
-2.00057e-08
-1.62221e-08
-1.16915e-08
-6.5508e-09
-1.12578e-09
4.11867e-09
8.63728e-09
1.18611e-08
1.32572e-08
1.23961e-08
9.00535e-09
3.26312e-09
-6.88814e-09
2.22398e-05
2.22151e-05
2.21523e-05
2.20509e-05
2.19085e-05
2.17188e-05
2.14732e-05
2.11613e-05
2.07709e-05
2.02873e-05
1.96933e-05
1.89691e-05
1.8092e-05
1.70371e-05
1.57777e-05
1.42862e-05
1.25361e-05
1.0504e-05
8.17294e-06
5.53645e-06
2.60344e-06
-5.96818e-07
-4.01012e-06
-7.55396e-06
-1.11169e-05
-1.4562e-05
-1.77352e-05
-2.04794e-05
-2.26527e-05
-2.4148e-05
-2.49093e-05
-2.49408e-05
-2.43049e-05
-2.31108e-05
-2.14952e-05
-1.9602e-05
-1.75651e-05
-1.54971e-05
-1.34854e-05
-1.15915e-05
-9.85457e-06
-8.29502e-06
-6.91918e-06
-5.72316e-06
-4.69635e-06
-3.82423e-06
-3.09048e-06
-2.47838e-06
-1.97176e-06
-1.55555e-06
-1.21607e-06
-9.4122e-07
-7.20526e-07
-5.45009e-07
-4.07025e-07
-3.00033e-07
-2.18402e-07
-1.57263e-07
-1.12429e-07
-8.03365e-08
-5.80143e-08
-4.30034e-08
-3.32891e-08
-2.72117e-08
-2.34114e-08
-2.07853e-08
-1.84839e-08
-1.59077e-08
-1.2715e-08
-8.80793e-09
-4.31084e-09
4.70738e-10
5.09894e-09
9.06043e-09
1.1821e-08
1.28821e-08
1.18424e-08
8.4455e-09
2.86215e-09
-6.98374e-09
2.22759e-05
2.22524e-05
2.21926e-05
2.20961e-05
2.19603e-05
2.17792e-05
2.15443e-05
2.12453e-05
2.08702e-05
2.04044e-05
1.98307e-05
1.9129e-05
1.82762e-05
1.72465e-05
1.6012e-05
1.45433e-05
1.28114e-05
1.07897e-05
8.45758e-06
5.80452e-06
2.83536e-06
-4.24031e-07
-3.92119e-06
-7.57275e-06
-1.12629e-05
-1.48461e-05
-1.81561e-05
-2.10208e-05
-2.32835e-05
-2.48249e-05
-2.5583e-05
-2.55632e-05
-2.48373e-05
-2.35284e-05
-2.17887e-05
-1.97758e-05
-1.76335e-05
-1.54799e-05
-1.34037e-05
-1.14655e-05
-9.70181e-06
-8.12974e-06
-6.75218e-06
-5.56207e-06
-4.54615e-06
-3.68777e-06
-2.96904e-06
-2.37213e-06
-1.88013e-06
-1.47746e-06
-1.15019e-06
-8.86098e-07
-6.74705e-07
-5.07127e-07
-3.75847e-07
-2.74459e-07
-1.97445e-07
-1.40033e-07
-9.81334e-08
-6.8291e-08
-4.76557e-08
-3.39016e-08
-2.51431e-08
-1.9834e-08
-1.67036e-08
-1.4712e-08
-1.30494e-08
-1.11382e-08
-8.64454e-09
-5.46745e-09
-1.71864e-09
2.31774e-09
6.23285e-09
9.54834e-09
1.1768e-08
1.24301e-08
1.1164e-08
7.73055e-09
2.29698e-09
-7.21974e-09
2.23172e-05
2.2295e-05
2.22388e-05
2.21478e-05
2.20197e-05
2.18485e-05
2.16258e-05
2.13417e-05
2.09843e-05
2.05391e-05
1.99888e-05
1.93132e-05
1.84887e-05
1.74885e-05
1.62834e-05
1.48418e-05
1.31318e-05
1.11233e-05
8.79121e-06
6.12025e-06
3.11033e-06
-2.16846e-07
-3.81116e-06
-7.58857e-06
-1.14283e-05
-1.5175e-05
-1.86476e-05
-2.16564e-05
-2.4026e-05
-2.56226e-05
-2.63764e-05
-2.62949e-05
-2.54608e-05
-2.40144e-05
-2.21271e-05
-1.99729e-05
-1.77071e-05
-1.54538e-05
-1.33034e-05
-1.13148e-05
-9.52112e-06
-7.93558e-06
-6.55695e-06
-5.37447e-06
-4.37175e-06
-3.52971e-06
-2.82865e-06
-2.24951e-06
-1.77452e-06
-1.38757e-06
-1.07442e-06
-8.22725e-07
-6.22033e-07
-4.63578e-07
-3.40003e-07
-2.45055e-07
-1.73348e-07
-1.20223e-07
-8.16978e-08
-5.44414e-08
-3.57475e-08
-2.34446e-08
-1.57969e-08
-1.13867e-08
-9.0421e-09
-7.79133e-09
-6.86591e-09
-5.71012e-09
-3.99814e-09
-1.62647e-09
1.30531e-09
4.53422e-09
7.6809e-09
1.03028e-08
1.19424e-08
1.21749e-08
1.06587e-08
7.16965e-09
1.86742e-09
-7.35152e-09
2.23627e-05
2.23421e-05
2.22898e-05
2.22049e-05
2.20853e-05
2.19249e-05
2.17158e-05
2.14483e-05
2.11105e-05
2.06882e-05
2.01641e-05
1.95177e-05
1.8725e-05
1.77582e-05
1.65864e-05
1.51758e-05
1.34915e-05
1.14991e-05
9.16879e-06
6.47952e-06
3.42556e-06
2.36386e-08
-3.67917e-06
-7.59842e-06
-1.16081e-05
-1.55418e-05
-1.92017e-05
-2.23769e-05
-2.48707e-05
-2.65312e-05
-2.72797e-05
-2.71259e-05
-2.61657e-05
-2.45602e-05
-2.2503e-05
-2.01875e-05
-1.7782e-05
-1.5417e-05
-1.31842e-05
-1.11404e-05
-9.3146e-06
-7.71534e-06
-6.3367e-06
-5.16371e-06
-4.17646e-06
-3.35319e-06
-2.67223e-06
-2.11314e-06
-1.65725e-06
-1.28789e-06
-9.90472e-07
-7.52557e-07
-5.63736e-07
-4.15392e-07
-3.00358e-07
-2.1256e-07
-1.46757e-07
-9.84062e-08
-6.36459e-08
-3.92825e-08
-2.27708e-08
-1.21126e-08
-5.73768e-09
-2.36838e-09
-9.37628e-10
-5.42836e-10
-4.56267e-10
-1.42977e-10
7.15144e-10
2.22345e-09
4.29304e-09
6.68069e-09
9.03544e-09
1.09498e-08
1.20035e-08
1.18063e-08
1.00423e-08
6.49871e-09
1.32698e-09
-7.59056e-09
2.24112e-05
2.23923e-05
2.23441e-05
2.22659e-05
2.21553e-05
2.20067e-05
2.18122e-05
2.15624e-05
2.12459e-05
2.08483e-05
2.03526e-05
1.9738e-05
1.89798e-05
1.80496e-05
1.69146e-05
1.55388e-05
1.38836e-05
1.19104e-05
9.5839e-06
6.87685e-06
3.777e-06
2.95298e-07
-3.52499e-06
-7.5995e-06
-1.17969e-05
-1.59387e-05
-1.98083e-05
-2.3171e-05
-2.58051e-05
-2.75379e-05
-2.82799e-05
-2.80436e-05
-2.69403e-05
-2.51551e-05
-2.29078e-05
-2.04132e-05
-1.78541e-05
-1.53677e-05
-1.30464e-05
-1.09441e-05
-9.08513e-06
-7.47262e-06
-6.09539e-06
-4.93383e-06
-3.96424e-06
-3.16194e-06
-2.50316e-06
-1.96604e-06
-1.53097e-06
-1.18067e-06
-9.00265e-07
-6.77189e-07
-5.01115e-07
-3.63615e-07
-2.57742e-07
-1.77617e-07
-1.18153e-07
-7.49334e-08
-4.42192e-08
-2.29655e-08
-8.80377e-09
7.5036e-11
5.06233e-09
7.28818e-09
7.71275e-09
7.17063e-09
6.3514e-09
5.7709e-09
5.73945e-09
6.36244e-09
7.55882e-09
9.1023e-09
1.06681e-08
1.18817e-08
1.23582e-08
1.17386e-08
9.72791e-09
6.11845e-09
1.04352e-09
-7.65335e-09
2.24617e-05
2.24445e-05
2.24007e-05
2.23294e-05
2.22282e-05
2.20918e-05
2.19126e-05
2.16815e-05
2.13872e-05
2.10157e-05
2.05498e-05
1.99688e-05
1.92475e-05
1.83563e-05
1.72609e-05
1.59228e-05
1.42999e-05
1.23489e-05
1.00287e-05
7.30524e-06
4.15915e-06
5.94728e-07
-3.34933e-06
-7.58936e-06
-1.19888e-05
-1.63566e-05
-2.04555e-05
-2.40245e-05
-2.68135e-05
-2.86262e-05
-2.93607e-05
-2.90322e-05
-2.77701e-05
-2.5787e-05
-2.33317e-05
-2.06433e-05
-1.79197e-05
-1.53047e-05
-1.28909e-05
-1.07286e-05
-8.8366e-06
-7.21196e-06
-5.83785e-06
-4.68968e-06
-3.7397e-06
-2.96021e-06
-2.32529e-06
-1.81164e-06
-1.39868e-06
-1.06856e-06
-8.06065e-07
-5.98566e-07
-4.35844e-07
-3.09691e-07
-2.13409e-07
-1.41332e-07
-8.8528e-08
-5.07035e-08
-2.42464e-08
-6.26855e-09
5.40974e-09
1.23953e-08
1.58921e-08
1.68797e-08
1.62135e-08
1.46651e-08
1.28907e-08
1.13895e-08
1.04634e-08
1.02145e-08
1.05647e-08
1.12999e-08
1.21172e-08
1.26721e-08
1.26116e-08
1.16044e-08
9.37216e-09
5.70716e-09
7.21615e-10
-7.78105e-09
2.25128e-05
2.24973e-05
2.24579e-05
2.23937e-05
2.23021e-05
2.21782e-05
2.20146e-05
2.18025e-05
2.15309e-05
2.11861e-05
2.07511e-05
2.02047e-05
1.95215e-05
1.8671e-05
1.76173e-05
1.63192e-05
1.47311e-05
1.28051e-05
1.04938e-05
7.75605e-06
4.56478e-06
9.1694e-07
-3.15418e-06
-7.56634e-06
-1.21781e-05
-1.67854e-05
-2.11294e-05
-2.49202e-05
-2.78765e-05
-2.97756e-05
-3.05015e-05
-3.00725e-05
-2.86382e-05
-2.64417e-05
-2.37644e-05
-2.08711e-05
-1.79756e-05
-1.5228e-05
-1.27202e-05
-1.04979e-05
-8.57392e-06
-6.93883e-06
-5.56969e-06
-4.4367e-06
-3.50796e-06
-2.75266e-06
-2.14277e-06
-1.65353e-06
-1.26346e-06
-9.54119e-07
-7.09987e-07
-5.18394e-07
-3.69265e-07
-2.5465e-07
-1.68124e-07
-1.04239e-07
-5.82187e-08
-2.58854e-08
-3.75373e-09
1.09008e-08
2.00573e-08
2.51094e-08
2.70679e-08
2.67625e-08
2.49508e-08
2.23502e-08
1.95911e-08
1.716e-08
1.535e-08
1.42555e-08
1.37954e-08
1.3761e-08
1.38659e-08
1.37909e-08
1.3212e-08
1.18225e-08
9.35707e-09
5.60382e-09
6.4695e-10
-7.76374e-09
2.25633e-05
2.25495e-05
2.25145e-05
2.24572e-05
2.23752e-05
2.22636e-05
2.21155e-05
2.19224e-05
2.16736e-05
2.13555e-05
2.09513e-05
2.04399e-05
1.97953e-05
1.89861e-05
1.7975e-05
1.67182e-05
1.51669e-05
1.3268e-05
1.09682e-05
8.21893e-06
4.9849e-06
1.25517e-06
-2.94307e-06
-7.52976e-06
-1.23592e-05
-1.72145e-05
-2.18142e-05
-2.58379e-05
-2.89708e-05
-3.09614e-05
-3.16778e-05
-3.11418e-05
-2.95248e-05
-2.71038e-05
-2.41949e-05
-2.10902e-05
-1.80195e-05
-1.51384e-05
-1.25374e-05
-1.0257e-05
-8.30315e-06
-6.65969e-06
-5.29738e-06
-4.1811e-06
-3.27476e-06
-2.54451e-06
-1.96023e-06
-1.49582e-06
-1.1289e-06
-8.4046e-07
-6.14734e-07
-4.3902e-07
-3.0343e-07
-2.00304e-07
-1.23502e-07
-6.77978e-08
-2.85551e-08
-1.70235e-09
1.61248e-08
2.74828e-08
3.41401e-08
3.72682e-08
3.7681e-08
3.60629e-08
3.30835e-08
2.94183e-08
2.56824e-08
2.23551e-08
1.97206e-08
1.78609e-08
1.66838e-08
1.59772e-08
1.54634e-08
1.48423e-08
1.3814e-08
1.20934e-08
9.42521e-09
5.59123e-09
6.45897e-10
-7.72091e-09
2.26118e-05
2.25997e-05
2.2569e-05
2.25184e-05
2.24457e-05
2.23461e-05
2.2213e-05
2.20383e-05
2.18116e-05
2.15196e-05
2.11455e-05
2.06683e-05
2.00617e-05
1.92935e-05
1.83248e-05
1.71098e-05
1.5596e-05
1.37258e-05
1.14398e-05
8.6819e-06
5.40865e-06
1.60078e-06
-2.72126e-06
-7.48031e-06
-1.25272e-05
-1.76324e-05
-2.24921e-05
-2.67545e-05
-3.00693e-05
-3.21543e-05
-3.28606e-05
-3.22135e-05
-3.04078e-05
-2.77564e-05
-2.4612e-05
-2.12948e-05
-1.80501e-05
-1.50384e-05
-1.23475e-05
-1.00122e-05
-8.03136e-06
-6.38181e-06
-5.02797e-06
-3.92942e-06
-3.04601e-06
-2.34095e-06
-1.78217e-06
-1.3423e-06
-9.98125e-07
-7.30147e-07
-5.22336e-07
-3.62012e-07
-2.39506e-07
-1.47475e-07
-8.00809e-08
-3.23057e-08
3.63876e-10
2.19127e-08
3.55929e-08
4.37913e-08
4.80577e-08
4.93337e-08
4.8235e-08
4.5307e-08
4.11442e-08
3.63953e-08
3.16735e-08
2.74595e-08
2.40308e-08
2.14536e-08
1.96174e-08
1.82979e-08
1.72171e-08
1.60874e-08
1.46279e-08
1.25719e-08
9.67349e-09
5.7078e-09
7.02378e-10
-7.69711e-09
2.26572e-05
2.26467e-05
2.26199e-05
2.25757e-05
2.25117e-05
2.24234e-05
2.23045e-05
2.21473e-05
2.19414e-05
2.16741e-05
2.13287e-05
2.08841e-05
2.03139e-05
1.95851e-05
1.86575e-05
1.74832e-05
1.60066e-05
1.41657e-05
1.1895e-05
9.13162e-06
5.82359e-06
1.94332e-06
-2.49581e-06
-7.42019e-06
-1.2678e-05
-1.80281e-05
-2.31446e-05
-2.76444e-05
-3.11413e-05
-3.33211e-05
-3.40171e-05
-3.3258e-05
-3.1263e-05
-2.83819e-05
-2.50048e-05
-2.14801e-05
-1.80676e-05
-1.49316e-05
-1.21566e-05
-9.77102e-06
-7.76667e-06
-6.11332e-06
-4.76923e-06
-3.68887e-06
-2.82822e-06
-2.14778e-06
-1.61369e-06
-1.19744e-06
-8.75064e-07
-6.26593e-07
-4.35781e-07
-2.89994e-07
-1.79813e-07
-9.82356e-08
-3.97226e-08
5.49436e-10
2.69985e-08
4.35475e-08
5.33508e-08
5.86287e-08
6.07079e-08
6.02953e-08
5.78076e-08
5.3658e-08
4.83783e-08
4.26058e-08
3.69653e-08
3.19484e-08
2.78296e-08
2.4657e-08
2.22949e-08
2.04977e-08
1.89776e-08
1.74507e-08
1.56492e-08
1.33213e-08
1.02284e-08
6.1388e-09
1.04912e-09
-7.46412e-09
2.26984e-05
2.26893e-05
2.26661e-05
2.26277e-05
2.25716e-05
2.24936e-05
2.23877e-05
2.22463e-05
2.20597e-05
2.1815e-05
2.1496e-05
2.10815e-05
2.05449e-05
1.98527e-05
1.89636e-05
1.78277e-05
1.63867e-05
1.45743e-05
1.232e-05
9.55378e-06
6.21599e-06
2.27085e-06
-2.27539e-06
-7.35312e-06
-1.28087e-05
-1.83906e-05
-2.37523e-05
-2.84803e-05
-3.21533e-05
-3.44251e-05
-3.51112e-05
-3.42432e-05
-3.20647e-05
-2.89623e-05
-2.53632e-05
-2.16425e-05
-1.80736e-05
-1.48231e-05
-1.19719e-05
-9.54183e-06
-7.51768e-06
-5.86255e-06
-4.52887e-06
-3.46635e-06
-2.62742e-06
-1.97014e-06
-1.45909e-06
-1.06476e-06
-7.62531e-07
-5.32005e-07
-3.56749e-07
-2.24198e-07
-1.25208e-07
-5.31267e-08
-2.70969e-09
3.06954e-08
5.14417e-08
6.34183e-08
6.9702e-08
7.23557e-08
7.24861e-08
7.05654e-08
6.68146e-08
6.15224e-08
5.51702e-08
4.83981e-08
4.18568e-08
3.60598e-08
3.12845e-08
2.75619e-08
2.47278e-08
2.25085e-08
2.05987e-08
1.87103e-08
1.65829e-08
1.39761e-08
1.06587e-08
6.39487e-09
1.16257e-09
-7.48389e-09
2.27342e-05
2.27263e-05
2.27064e-05
2.2673e-05
2.26239e-05
2.25549e-05
2.24604e-05
2.2333e-05
2.21632e-05
2.19385e-05
2.16428e-05
2.1255e-05
2.07483e-05
2.00888e-05
1.92342e-05
1.81331e-05
1.67245e-05
1.49388e-05
1.27006e-05
9.93373e-06
6.57148e-06
2.57043e-06
-2.06996e-06
-7.28425e-06
-1.29177e-05
-1.871e-05
-2.42959e-05
-2.92342e-05
-3.30703e-05
-3.54279e-05
-3.61048e-05
-3.51356e-05
-3.27867e-05
-2.94802e-05
-2.56779e-05
-2.17797e-05
-1.80708e-05
-1.47192e-05
-1.18016e-05
-9.33368e-06
-7.29356e-06
-5.6383e-06
-4.31502e-06
-3.26919e-06
-2.45012e-06
-1.81375e-06
-1.32336e-06
-9.48606e-07
-6.64309e-07
-4.49678e-07
-2.88125e-07
-1.67168e-07
-7.79462e-08
-1.41507e-08
2.91826e-08
5.65614e-08
7.2304e-08
8.02943e-08
8.35538e-08
8.40043e-08
8.25423e-08
7.9413e-08
7.4648e-08
6.84186e-08
6.11646e-08
5.35391e-08
4.62285e-08
3.97769e-08
3.44713e-08
3.03279e-08
2.7153e-08
2.46404e-08
2.24609e-08
2.03156e-08
1.79456e-08
1.51186e-08
1.16092e-08
7.17757e-09
1.77454e-09
-7.11167e-09
2.27637e-05
2.27569e-05
2.27396e-05
2.27104e-05
2.26671e-05
2.26057e-05
2.25207e-05
2.2405e-05
2.22492e-05
2.20413e-05
2.17651e-05
2.13997e-05
2.09183e-05
2.02864e-05
1.94611e-05
1.83896e-05
1.70091e-05
1.52468e-05
1.30232e-05
1.02572e-05
6.87582e-06
2.82894e-06
-1.89006e-06
-7.21966e-06
-1.30047e-05
-1.89777e-05
-2.47576e-05
-2.98789e-05
-3.38578e-05
-3.62908e-05
-3.696e-05
-3.59018e-05
-3.34038e-05
-2.99192e-05
-2.59411e-05
-2.18907e-05
-1.8063e-05
-1.46266e-05
-1.16541e-05
-9.15535e-06
-7.10293e-06
-5.44854e-06
-4.13481e-06
-3.10358e-06
-2.30155e-06
-1.68297e-06
-1.21006e-06
-8.51819e-07
-5.82602e-07
-3.81292e-07
-2.31159e-07
-1.19813e-07
-3.86585e-08
1.82865e-08
5.57359e-08
7.80804e-08
8.96302e-08
9.42891e-08
9.50482e-08
9.37113e-08
9.09868e-08
8.69106e-08
8.1339e-08
7.43359e-08
6.63066e-08
5.79235e-08
4.99154e-08
4.2864e-08
3.70722e-08
3.25471e-08
2.90681e-08
2.6297e-08
2.38774e-08
2.1496e-08
1.88913e-08
1.58367e-08
1.21131e-08
7.48098e-09
1.8835e-09
-7.18763e-09
2.27863e-05
2.27803e-05
2.2765e-05
2.27391e-05
2.27002e-05
2.26446e-05
2.25669e-05
2.24603e-05
2.23155e-05
2.21205e-05
2.18595e-05
2.15116e-05
2.10498e-05
2.04395e-05
1.96372e-05
1.85891e-05
1.72308e-05
1.54873e-05
1.32759e-05
1.05114e-05
7.11589e-06
3.034e-06
-1.74593e-06
-7.16578e-06
-1.30704e-05
-1.91867e-05
-2.51215e-05
-3.03897e-05
-3.44838e-05
-3.6978e-05
-3.7641e-05
-3.65111e-05
-3.38927e-05
-3.02651e-05
-2.61465e-05
-2.19756e-05
-1.80546e-05
-1.45522e-05
-1.15374e-05
-9.01536e-06
-6.95404e-06
-5.30096e-06
-3.99515e-06
-2.97564e-06
-2.1871e-06
-1.58248e-06
-1.12323e-06
-7.77868e-07
-5.20387e-07
-3.29401e-07
-1.88064e-07
-8.40627e-08
-9.03751e-09
4.27146e-08
7.56948e-08
9.42049e-08
1.02566e-07
1.04718e-07
1.03644e-07
1.01058e-07
9.75102e-08
9.2857e-08
8.67999e-08
7.93072e-08
7.07542e-08
6.18327e-08
5.33142e-08
4.58201e-08
3.9674e-08
3.48797e-08
3.11953e-08
2.82533e-08
2.56717e-08
2.31208e-08
2.03345e-08
1.709e-08
1.31741e-08
8.34761e-09
2.53661e-09
-6.81183e-09
2.28012e-05
2.27958e-05
2.27818e-05
2.27581e-05
2.27223e-05
2.26707e-05
2.2598e-05
2.24974e-05
2.236e-05
2.21739e-05
2.19232e-05
2.15872e-05
2.11388e-05
2.05433e-05
1.97568e-05
1.87249e-05
1.73819e-05
1.56515e-05
1.34487e-05
1.06855e-05
7.2807e-06
3.17509e-06
-1.64654e-06
-7.12853e-06
-1.31158e-05
-1.93319e-05
-2.53748e-05
-3.0746e-05
-3.49212e-05
-3.74588e-05
-3.81176e-05
-3.69373e-05
-3.42342e-05
-3.05062e-05
-2.62896e-05
-2.20349e-05
-1.80496e-05
-1.45019e-05
-1.14583e-05
-8.92057e-06
-6.85338e-06
-5.20139e-06
-3.90113e-06
-2.8897e-06
-2.11036e-06
-1.51524e-06
-1.06526e-06
-7.28648e-07
-4.79129e-07
-2.95123e-07
-1.59692e-07
-6.05782e-08
1.03998e-08
5.87306e-08
8.87552e-08
1.04715e-07
1.10952e-07
1.11451e-07
1.09205e-07
1.05871e-07
1.01884e-07
9.69593e-08
9.0676e-08
8.29232e-08
7.405e-08
6.47646e-08
5.58764e-08
4.80451e-08
4.16174e-08
3.66009e-08
3.27401e-08
2.96459e-08
2.69143e-08
2.42014e-08
2.12363e-08
1.77995e-08
1.36848e-08
8.65831e-09
2.64864e-09
-6.8785e-09
2.28082e-05
2.2803e-05
2.27897e-05
2.27671e-05
2.27328e-05
2.26831e-05
2.26129e-05
2.25154e-05
2.23817e-05
2.22e-05
2.19544e-05
2.16244e-05
2.11827e-05
2.05947e-05
1.98161e-05
1.87922e-05
1.74569e-05
1.57331e-05
1.35346e-05
1.0772e-05
7.36232e-06
3.24449e-06
-1.59854e-06
-7.11246e-06
-1.31423e-05
-1.94098e-05
-2.55086e-05
-3.09332e-05
-3.51505e-05
-3.77107e-05
-3.83675e-05
-3.71611e-05
-3.44141e-05
-3.06343e-05
-2.63671e-05
-2.20695e-05
-1.80512e-05
-1.44804e-05
-1.1422e-05
-8.87617e-06
-6.80589e-06
-5.15431e-06
-3.85672e-06
-2.8492e-06
-2.07434e-06
-1.48383e-06
-1.03837e-06
-7.06019e-07
-4.60384e-07
-2.79757e-07
-1.47136e-07
-5.02883e-08
1.88652e-08
6.56826e-08
9.44064e-08
1.09245e-07
1.14563e-07
1.14389e-07
1.11737e-07
1.08239e-07
1.04264e-07
9.94385e-08
9.32544e-08
8.5543e-08
7.66308e-08
6.72353e-08
5.81937e-08
5.01977e-08
4.36176e-08
3.84705e-08
3.44968e-08
3.12949e-08
2.84469e-08
2.55984e-08
2.24757e-08
1.8863e-08
1.45618e-08
9.34429e-09
3.1361e-09
-6.61116e-09
2.28069e-05
2.28017e-05
2.27884e-05
2.27657e-05
2.27314e-05
2.26816e-05
2.26113e-05
2.25136e-05
2.23798e-05
2.21979e-05
2.19522e-05
2.1622e-05
2.11801e-05
2.05918e-05
1.98129e-05
1.87887e-05
1.74531e-05
1.57288e-05
1.35299e-05
1.07668e-05
7.35659e-06
3.2382e-06
-1.60545e-06
-7.12001e-06
-1.31506e-05
-1.94187e-05
-2.55182e-05
-3.09434e-05
-3.51613e-05
-3.77217e-05
-3.83787e-05
-3.71722e-05
-3.44251e-05
-3.06451e-05
-2.63776e-05
-2.20798e-05
-1.80611e-05
-1.449e-05
-1.14311e-05
-8.88475e-06
-6.81394e-06
-5.16184e-06
-3.86374e-06
-2.8557e-06
-2.08033e-06
-1.48933e-06
-1.04343e-06
-7.10695e-07
-4.6472e-07
-2.83761e-07
-1.50779e-07
-5.35309e-08
1.60449e-08
6.32733e-08
9.23691e-08
1.07534e-07
1.13153e-07
1.13287e-07
1.10979e-07
1.07872e-07
1.04322e-07
9.992e-08
9.41187e-08
8.67147e-08
7.80164e-08
6.87416e-08
5.97427e-08
5.1734e-08
4.51073e-08
3.98949e-08
3.58433e-08
3.25501e-08
2.95924e-08
2.66126e-08
2.33368e-08
1.95548e-08
1.50768e-08
9.68551e-09
3.31529e-09
-6.56676e-09
2.27974e-05
2.27919e-05
2.27779e-05
2.27541e-05
2.2718e-05
2.26661e-05
2.25931e-05
2.24922e-05
2.23544e-05
2.21678e-05
2.19166e-05
2.158e-05
2.1131e-05
2.05347e-05
1.97473e-05
1.87144e-05
1.73704e-05
1.56388e-05
1.34346e-05
1.067e-05
7.2636e-06
3.15628e-06
-1.66716e-06
-7.15107e-06
-1.31404e-05
-1.93585e-05
-2.54034e-05
-3.07764e-05
-3.49532e-05
-3.74917e-05
-3.8151e-05
-3.69705e-05
-3.42668e-05
-3.05382e-05
-2.63208e-05
-2.20655e-05
-1.80792e-05
-1.45304e-05
-1.14854e-05
-8.94614e-06
-6.8774e-06
-5.22386e-06
-3.92207e-06
-2.9091e-06
-2.12824e-06
-1.53165e-06
-1.08035e-06
-7.42579e-07
-4.92029e-07
-3.07011e-07
-1.70486e-07
-7.01629e-08
2.09159e-09
5.16698e-08
8.28302e-08
9.97957e-08
1.06963e-07
1.08414e-07
1.07226e-07
1.05084e-07
1.02384e-07
9.87417e-08
9.36165e-08
8.6797e-08
7.85779e-08
6.96676e-08
6.09195e-08
5.30589e-08
4.64963e-08
4.12838e-08
3.71847e-08
3.38082e-08
3.07384e-08
2.76214e-08
2.41886e-08
2.02368e-08
1.55871e-08
1.00338e-08
3.52266e-09
-6.46299e-09
2.278e-05
2.27739e-05
2.27585e-05
2.27323e-05
2.26931e-05
2.26371e-05
2.25589e-05
2.24517e-05
2.23062e-05
2.21104e-05
2.18486e-05
2.14997e-05
2.10367e-05
2.04252e-05
1.96215e-05
1.85718e-05
1.72117e-05
1.54662e-05
1.32526e-05
1.04857e-05
7.08758e-06
3.00289e-06
-1.78002e-06
-7.20302e-06
-1.31109e-05
-1.92306e-05
-2.51686e-05
-3.04397e-05
-3.45363e-05
-3.70322e-05
-3.76959e-05
-3.65658e-05
-3.39465e-05
-3.03178e-05
-2.6198e-05
-2.20259e-05
-1.81034e-05
-1.45991e-05
-1.1582e-05
-9.05754e-06
-6.99368e-06
-5.33807e-06
-4.02977e-06
-3.00776e-06
-2.21672e-06
-1.60971e-06
-1.14829e-06
-8.0103e-07
-5.41844e-07
-3.49187e-07
-2.06054e-07
-1.00074e-07
-2.29602e-08
3.08422e-08
6.57042e-08
8.58972e-08
9.58252e-08
9.9577e-08
1.00268e-07
9.96573e-08
9.82305e-08
9.56852e-08
9.1532e-08
8.55771e-08
7.81069e-08
6.98112e-08
6.15295e-08
5.39872e-08
4.7609e-08
4.24715e-08
3.83655e-08
3.49245e-08
3.17507e-08
2.85035e-08
2.49238e-08
2.08184e-08
1.60201e-08
1.0337e-08
3.72778e-09
-6.31686e-09
2.2755e-05
2.27481e-05
2.27306e-05
2.2701e-05
2.26572e-05
2.25952e-05
2.25095e-05
2.2393e-05
2.22363e-05
2.20273e-05
2.17499e-05
2.13832e-05
2.09002e-05
2.02665e-05
1.94392e-05
1.83656e-05
1.69825e-05
1.52175e-05
1.29909e-05
1.02216e-05
6.83659e-06
2.78586e-06
-1.93723e-06
-7.27113e-06
-1.30606e-05
-1.90381e-05
-2.48224e-05
-2.99477e-05
-3.39299e-05
-3.63652e-05
-3.70352e-05
-3.59768e-05
-3.34776e-05
-2.99916e-05
-2.60118e-05
-2.19598e-05
-1.81301e-05
-1.46911e-05
-1.17156e-05
-9.21348e-06
-7.1576e-06
-5.49979e-06
-4.18265e-06
-3.14803e-06
-2.34262e-06
-1.72079e-06
-1.2449e-06
-8.84029e-07
-6.12434e-07
-4.08794e-07
-2.56174e-07
-1.42103e-07
-5.80697e-08
1.72153e-09
4.18165e-08
6.65618e-08
8.03686e-08
8.73261e-08
9.05937e-08
9.20319e-08
9.22608e-08
9.11091e-08
8.81807e-08
8.33229e-08
7.68196e-08
6.93347e-08
6.16822e-08
5.45774e-08
4.84567e-08
4.34257e-08
3.93124e-08
3.57869e-08
3.24814e-08
2.90767e-08
2.53288e-08
2.10567e-08
1.61066e-08
1.03027e-08
3.62583e-09
-6.39103e-09
2.27231e-05
2.27151e-05
2.26948e-05
2.2661e-05
2.26113e-05
2.25416e-05
2.24462e-05
2.23177e-05
2.21467e-05
2.19207e-05
2.16234e-05
2.12339e-05
2.07253e-05
2.00635e-05
1.92064e-05
1.81024e-05
1.66907e-05
1.49016e-05
1.26595e-05
9.88849e-06
6.52172e-06
2.51584e-06
-2.12968e-06
-7.34933e-06
-1.29883e-05
-1.87861e-05
-2.43775e-05
-2.93206e-05
-3.31607e-05
-3.5521e-05
-3.61991e-05
-3.52295e-05
-3.28794e-05
-2.9571e-05
-2.57667e-05
-2.18664e-05
-1.8155e-05
-1.48003e-05
-1.1879e-05
-9.40689e-06
-7.36252e-06
-5.70301e-06
-4.37553e-06
-3.32551e-06
-2.50226e-06
-1.86187e-06
-1.36777e-06
-9.89695e-07
-7.02374e-07
-4.84786e-07
-3.20096e-07
-1.95723e-07
-1.02887e-07
-3.54893e-08
1.12401e-08
4.17502e-08
6.04663e-08
7.1478e-08
7.79963e-08
8.20051e-08
8.42956e-08
8.48669e-08
8.3449e-08
7.99508e-08
7.46594e-08
6.82086e-08
6.13777e-08
5.48652e-08
4.91166e-08
4.42703e-08
4.01999e-08
3.66225e-08
3.32094e-08
2.96699e-08
2.57795e-08
2.13715e-08
1.63056e-08
1.04221e-08
3.71845e-09
-6.26278e-09
2.26849e-05
2.26757e-05
2.26522e-05
2.26132e-05
2.25564e-05
2.24775e-05
2.23705e-05
2.22279e-05
2.20398e-05
2.17935e-05
2.14726e-05
2.1056e-05
2.05171e-05
1.98222e-05
1.893e-05
1.77908e-05
1.6346e-05
1.45295e-05
1.22706e-05
9.49936e-06
6.15619e-06
2.2053e-06
-2.34701e-06
-7.43106e-06
-1.28931e-05
-1.84815e-05
-2.38494e-05
-2.8583e-05
-3.22605e-05
-3.45354e-05
-3.52228e-05
-3.43546e-05
-3.21746e-05
-2.90702e-05
-2.54687e-05
-2.17455e-05
-1.81736e-05
-1.49195e-05
-1.2064e-05
-9.62912e-06
-7.60001e-06
-5.93993e-06
-4.60135e-06
-3.53395e-06
-2.69017e-06
-2.0282e-06
-1.51277e-06
-1.11447e-06
-8.08603e-07
-5.74512e-07
-3.95503e-07
-2.58883e-07
-1.55583e-07
-7.91636e-08
-2.45922e-08
1.271e-08
3.71968e-08
5.29671e-08
6.32932e-08
7.03006e-08
7.49771e-08
7.75205e-08
7.78129e-08
7.58419e-08
7.19062e-08
6.66096e-08
6.0694e-08
5.48375e-08
4.9495e-08
4.48414e-08
4.08024e-08
3.71497e-08
3.3601e-08
2.99e-08
2.58443e-08
2.12831e-08
1.6091e-08
1.0126e-08
3.41273e-09
-6.44958e-09
2.26416e-05
2.26309e-05
2.26037e-05
2.25588e-05
2.24939e-05
2.24045e-05
2.22844e-05
2.21257e-05
2.19182e-05
2.1649e-05
2.13014e-05
2.08544e-05
2.02814e-05
1.95495e-05
1.86184e-05
1.74402e-05
1.59593e-05
1.41135e-05
1.18376e-05
9.06849e-06
5.75428e-06
1.86744e-06
-2.57859e-06
-7.51012e-06
-1.27752e-05
-1.81325e-05
-2.3256e-05
-2.77619e-05
-3.12638e-05
-3.34469e-05
-3.41444e-05
-3.33851e-05
-3.13885e-05
-2.85052e-05
-2.51255e-05
-2.15979e-05
-1.8182e-05
-1.50419e-05
-1.22621e-05
-9.87124e-06
-7.86137e-06
-6.20248e-06
-4.8529e-06
-3.76709e-06
-2.90103e-06
-2.21532e-06
-1.67628e-06
-1.25548e-06
-9.2889e-07
-6.76287e-07
-4.8115e-07
-3.30694e-07
-2.15559e-07
-1.28946e-07
-6.55348e-08
-2.05906e-08
1.03901e-08
3.15288e-08
4.617e-08
5.65908e-08
6.39891e-08
6.8778e-08
7.10074e-08
7.07576e-08
6.83477e-08
6.43562e-08
5.94884e-08
5.44023e-08
4.95626e-08
4.51824e-08
4.12426e-08
3.75735e-08
3.39428e-08
3.01307e-08
2.59586e-08
2.12923e-08
1.60208e-08
1.0019e-08
3.33134e-09
-6.42235e-09
2.2594e-05
2.25817e-05
2.25505e-05
2.24991e-05
2.24254e-05
2.23246e-05
2.21902e-05
2.20138e-05
2.17852e-05
2.1491e-05
2.11146e-05
2.06346e-05
2.00249e-05
1.92532e-05
1.82806e-05
1.70611e-05
1.55424e-05
1.36669e-05
1.13749e-05
8.61058e-06
5.33044e-06
1.51526e-06
-2.81441e-06
-7.58133e-06
-1.26362e-05
-1.77492e-05
-2.26163e-05
-2.68853e-05
-3.02053e-05
-3.22939e-05
-3.30018e-05
-3.23545e-05
-3.05472e-05
-2.78934e-05
-2.47461e-05
-2.14258e-05
-1.81774e-05
-1.51612e-05
-1.24652e-05
-1.01241e-05
-8.13736e-06
-6.48181e-06
-5.12201e-06
-4.01755e-06
-3.12826e-06
-2.41748e-06
-1.85326e-06
-1.40833e-06
-1.05942e-06
-7.86789e-07
-5.74123e-07
-4.08578e-07
-2.80517e-07
-1.82786e-07
-1.09763e-07
-5.65308e-08
-1.85131e-08
8.45189e-09
2.77898e-08
4.19335e-08
5.22946e-08
5.95077e-08
6.38006e-08
6.53584e-08
6.45321e-08
6.18849e-08
5.80916e-08
5.37941e-08
4.94684e-08
4.53668e-08
4.15264e-08
3.78367e-08
3.41162e-08
3.01824e-08
2.58815e-08
2.10958e-08
1.57298e-08
9.67663e-09
3.00771e-09
-6.60299e-09
2.25434e-05
2.25294e-05
2.24939e-05
2.24357e-05
2.23527e-05
2.22397e-05
2.209e-05
2.18951e-05
2.16442e-05
2.13237e-05
2.09168e-05
2.04023e-05
1.97543e-05
1.89413e-05
1.79258e-05
1.66642e-05
1.51075e-05
1.32027e-05
1.08963e-05
8.13999e-06
4.89842e-06
1.16075e-06
-3.04576e-06
-7.64091e-06
-1.24789e-05
-1.73424e-05
-2.19498e-05
-2.59804e-05
-2.91187e-05
-3.11129e-05
-3.1831e-05
-3.12949e-05
-2.96764e-05
-2.72529e-05
-2.43409e-05
-2.12328e-05
-1.81581e-05
-1.52723e-05
-1.26659e-05
-1.03795e-05
-8.41935e-06
-6.76954e-06
-5.40092e-06
-4.27837e-06
-3.36581e-06
-2.62947e-06
-2.03935e-06
-1.56945e-06
-1.19733e-06
-9.03761e-07
-6.72695e-07
-4.91254e-07
-3.49556e-07
-2.40105e-07
-1.56968e-07
-9.5029e-08
-4.9614e-08
-1.65037e-08
7.81501e-09
2.59284e-08
3.94561e-08
4.9252e-08
5.57255e-08
5.91757e-08
5.99983e-08
5.87524e-08
5.60916e-08
5.26457e-08
4.89033e-08
4.51538e-08
4.14878e-08
3.78507e-08
3.41099e-08
3.01186e-08
2.57468e-08
2.08936e-08
1.54791e-08
9.41455e-09
2.79456e-09
-6.67552e-09
2.2491e-05
2.24753e-05
2.24353e-05
2.23701e-05
2.22774e-05
2.21519e-05
2.19866e-05
2.17725e-05
2.14986e-05
2.11513e-05
2.07133e-05
2.01636e-05
1.94767e-05
1.8622e-05
1.75636e-05
1.62602e-05
1.46663e-05
1.27338e-05
1.04154e-05
7.67009e-06
4.47072e-06
8.14371e-07
-3.26555e-06
-7.68665e-06
-1.23073e-05
-1.69233e-05
-2.12752e-05
-2.50729e-05
-2.80347e-05
-2.99375e-05
-3.06651e-05