/*--------------------------------*- C++ -*----------------------------------*\
| =========                 |                                                 |
| \\      /  F ield         | OpenFOAM: The Open Source CFD Toolbox           |
|  \\    /   O peration     | Version:  2512                                  |
|   \\  /    A nd           | Website:  www.openfoam.com                      |
|    \\/     M anipulation  |                                                 |
\*---------------------------------------------------------------------------*/
FoamFile
{
    version     2.0;
    format      ascii;
    arch        "LSB;label=32;scalar=64";
    class       volScalarField;
    location    "159";
    object      omega;
}
// * * * * * * * * * * * * * * * * * * * * * * * * * * * * * * * * * * * * * //

dimensions      [0 0 -1 0 0 0 0];

internalField   nonuniform List<scalar> 
229904
(
8.07067
6.69608
5.69885
4.94658
4.36122
3.89414
3.51361
3.19816
2.93275
2.7066
2.51176
2.34227
2.19358
2.06213
1.94515
1.84041
1.7461
1.66078
1.58322
1.51244
1.44758
1.38796
1.33296
1.28207
1.23486
1.19095
1.15
1.11173
1.07588
1.04224
1.0106
0.980808
0.952694
0.926124
0.900976
0.87714
0.854516
0.833015
0.812556
0.793066
0.774478
0.756731
0.73977
0.723544
0.708007
0.693115
0.678831
0.665118
0.651942
0.639273
0.627082
0.615343
0.604031
0.593124
0.5826
0.572439
0.562624
0.553137
0.543962
0.535084
0.526488
0.518162
0.510093
0.50227
0.494681
0.487316
0.480166
0.473221
0.466472
0.459912
0.453532
0.447326
0.441286
0.435406
0.42968
0.424101
0.418664
0.413364
0.408197
0.403231
8.07067
6.69608
5.69885
4.94658
4.36122
3.89414
3.51361
3.19816
2.93275
2.7066
2.51176
2.34227
2.19358
2.06213
1.94515
1.84041
1.7461
1.66078
1.58322
1.51244
1.44758
1.38796
1.33296
1.28207
1.23486
1.19095
1.15
1.11173
1.07588
1.04224
1.01061
0.980809
0.952695
0.926125
0.900977
0.877141
0.854517
0.833016
0.812557
0.793067
0.774479
0.756732
0.739771
0.723545
0.708008
0.693117
0.678832
0.665119
0.651943
0.639274
0.627083
0.615344
0.604032
0.593124
0.5826
0.57244
0.562625
0.553138
0.543962
0.535084
0.526489
0.518163
0.510094
0.50227
0.494681
0.487317
0.480166
0.473221
0.466473
0.459912
0.453533
0.447327
0.441287
0.435407
0.42968
0.424102
0.418665
0.413365
0.408198
0.403231
8.07067
6.69608
5.69885
4.94658
4.36122
3.89414
3.51361
3.19816
2.93275
2.7066
2.51176
2.34227
2.19358
2.06213
1.94515
1.84041
1.7461
1.66078
1.58322
1.51244
1.44758
1.38796
1.33296
1.28207
1.23486
1.19095
1.15
1.11173
1.07588
1.04224
1.01061
0.980811
0.952696
0.926127
0.900979
0.877143
0.854519
0.833018
0.812559
0.793069
0.774481
0.756734
0.739773
0.723547
0.708009
0.693118
0.678834
0.66512
0.651944
0.639275
0.627084
0.615345
0.604033
0.593126
0.582602
0.572441
0.562626
0.553139
0.543964
0.535085
0.52649
0.518164
0.510095
0.502271
0.494682
0.487317
0.480167
0.473222
0.466473
0.459913
0.453534
0.447327
0.441288
0.435408
0.429681
0.424102
0.418665
0.413365
0.408198
0.403232
8.07067
6.69608
5.69885
4.94658
4.36122
3.89414
3.51361
3.19816
2.93275
2.7066
2.51176
2.34227
2.19358
2.06213
1.94515
1.8404
1.7461
1.66078
1.58322
1.51244
1.44758
1.38796
1.33296
1.28207
1.23486
1.19095
1.15
1.11173
1.07588
1.04224
1.01061
0.980812
0.952698
0.926129
0.900981
0.877145
0.854521
0.83302
0.812561
0.793071
0.774483
0.756736
0.739774
0.723548
0.708011
0.69312
0.678836
0.665122
0.651946
0.639277
0.627086
0.615346
0.604034
0.593127
0.582603
0.572443
0.562627
0.55314
0.543965
0.535086
0.526491
0.518165
0.510096
0.502272
0.494683
0.487318
0.480168
0.473223
0.466474
0.459914
0.453535
0.447328
0.441288
0.435408
0.429682
0.424103
0.418666
0.413366
0.408199
0.403233
8.07067
6.69608
5.69885
4.94658
4.36122
3.89414
3.51361
3.19816
2.93275
2.7066
2.51176
2.34227
2.19358
2.06213
1.94515
1.8404
1.7461
1.66078
1.58322
1.51244
1.44758
1.38796
1.33296
1.28207
1.23486
1.19095
1.15
1.11173
1.07588
1.04224
1.01061
0.980814
0.9527
0.926131
0.900983
0.877147
0.854523
0.833022
0.812563
0.793073
0.774485
0.756738
0.739777
0.723551
0.708013
0.693122
0.678838
0.665124
0.651948
0.639279
0.627087
0.615348
0.604036
0.593129
0.582605
0.572444
0.562629
0.553142
0.543966
0.535088
0.526492
0.518166
0.510097
0.502274
0.494685
0.48732
0.480169
0.473224
0.466475
0.459915
0.453536
0.447329
0.441289
0.435409
0.429683
0.424104
0.418667
0.413367
0.4082
0.403234
8.07067
6.69608
5.69885
4.94658
4.36122
3.89414
3.51361
3.19816
2.93275
2.7066
2.51176
2.34227
2.19358
2.06213
1.94515
1.8404
1.7461
1.66078
1.58322
1.51244
1.44758
1.38796
1.33296
1.28207
1.23487
1.19095
1.15
1.11173
1.07588
1.04224
1.01061
0.980816
0.952702
0.926133
0.900985
0.877149
0.854526
0.833025
0.812566
0.793076
0.774487
0.75674
0.739779
0.723553
0.708015
0.693124
0.67884
0.665126
0.65195
0.639281
0.627089
0.61535
0.604038
0.59313
0.582606
0.572446
0.56263
0.553143
0.543968
0.535089
0.526494
0.518167
0.510098
0.502275
0.494686
0.487321
0.48017
0.473225
0.466477
0.459916
0.453537
0.44733
0.441291
0.43541
0.429684
0.424105
0.418668
0.413368
0.408201
0.403234
8.07067
6.69608
5.69885
4.94658
4.36122
3.89414
3.51361
3.19816
2.93275
2.7066
2.51176
2.34227
2.19358
2.06213
1.94515
1.8404
1.7461
1.66077
1.58322
1.51244
1.44758
1.38796
1.33296
1.28208
1.23487
1.19095
1.15
1.11173
1.07589
1.04225
1.01061
0.980818
0.952704
0.926135
0.900988
0.877152
0.854528
0.833027
0.812569
0.793078
0.77449
0.756743
0.739782
0.723555
0.708018
0.693127
0.678842
0.665128
0.651952
0.639283
0.627091
0.615352
0.60404
0.593132
0.582608
0.572448
0.562632
0.553145
0.543969
0.535091
0.526495
0.518169
0.5101
0.502276
0.494687
0.487322
0.480172
0.473227
0.466478
0.459918
0.453538
0.447332
0.441292
0.435412
0.429685
0.424106
0.418669
0.413369
0.408202
0.403235
8.07067
6.69608
5.69885
4.94658
4.36122
3.89414
3.51361
3.19816
2.93275
2.7066
2.51176
2.34227
2.19358
2.06213
1.94515
1.8404
1.7461
1.66077
1.58322
1.51243
1.44758
1.38796
1.33296
1.28207
1.23487
1.19095
1.15
1.11173
1.07589
1.04225
1.01062
0.98082
0.952707
0.926138
0.900991
0.877155
0.854531
0.83303
0.812572
0.793081
0.774493
0.756746
0.739784
0.723558
0.708021
0.693129
0.678845
0.665131
0.651954
0.639285
0.627094
0.615354
0.604042
0.593134
0.58261
0.572449
0.562634
0.553147
0.543971
0.535093
0.526497
0.518171
0.510101
0.502278
0.494689
0.487324
0.480173
0.473228
0.466479
0.459919
0.453539
0.447333
0.441293
0.435413
0.429686
0.424107
0.41867
0.41337
0.408203
0.403237
8.07067
6.69608
5.69885
4.94658
4.36122
3.89414
3.51361
3.19816
2.93275
2.7066
2.51176
2.34227
2.19357
2.06213
1.94515
1.8404
1.7461
1.66077
1.58322
1.51243
1.44758
1.38796
1.33296
1.28207
1.23487
1.19095
1.15
1.11173
1.07589
1.04225
1.01062
0.980823
0.95271
0.926141
0.900994
0.877158
0.854534
0.833033
0.812575
0.793084
0.774496
0.756749
0.739787
0.723561
0.708023
0.693132
0.678847
0.665133
0.651957
0.639287
0.627096
0.615356
0.604044
0.593136
0.582612
0.572451
0.562636
0.553149
0.543973
0.535094
0.526499
0.518172
0.510103
0.502279
0.49469
0.487325
0.480175
0.473229
0.466481
0.45992
0.453541
0.447334
0.441294
0.435414
0.429687
0.424108
0.418672
0.413371
0.408204
0.403238
8.07067
6.69608
5.69885
4.94658
4.36122
3.89414
3.51361
3.19816
2.93275
2.7066
2.51176
2.34227
2.19357
2.06213
1.94515
1.8404
1.7461
1.66077
1.58322
1.51243
1.44758
1.38796
1.33296
1.28207
1.23487
1.19095
1.15
1.11173
1.07589
1.04225
1.01062
0.980825
0.952712
0.926144
0.900997
0.877161
0.854537
0.833037
0.812578
0.793087
0.774499
0.756752
0.73979
0.723564
0.708026
0.693134
0.67885
0.665136
0.651959
0.63929
0.627098
0.615359
0.604046
0.593139
0.582614
0.572454
0.562638
0.55315
0.543975
0.535096
0.5265
0.518174
0.510105
0.502281
0.494692
0.487327
0.480176
0.473231
0.466482
0.459922
0.453542
0.447336
0.441296
0.435415
0.429689
0.42411
0.418673
0.413373
0.408205
0.403239
8.07067
6.69608
5.69885
4.94658
4.36122
3.89414
3.51361
3.19816
2.93275
2.7066
2.51176
2.34227
2.19357
2.06213
1.94515
1.8404
1.7461
1.66077
1.58322
1.51243
1.44758
1.38796
1.33296
1.28207
1.23487
1.19095
1.15001
1.11174
1.07589
1.04225
1.01062
0.980828
0.952715
0.926147
0.901
0.877164
0.854541
0.83304
0.812581
0.793091
0.774502
0.756755
0.739793
0.723567
0.708029
0.693137
0.678852
0.665138
0.651962
0.639292
0.627101
0.615361
0.604049
0.593141
0.582616
0.572456
0.56264
0.553152
0.543977
0.535098
0.526502
0.518176
0.510107
0.502283
0.494694
0.487329
0.480178
0.473233
0.466484
0.459923
0.453544
0.447337
0.441297
0.435417
0.42969
0.424111
0.418674
0.413374
0.408206
0.40324
8.07067
6.69608
5.69885
4.94658
4.36122
3.89414
3.51361
3.19816
2.93275
2.7066
2.51176
2.34227
2.19357
2.06213
1.94514
1.8404
1.7461
1.66077
1.58322
1.51243
1.44758
1.38796
1.33296
1.28207
1.23487
1.19095
1.15001
1.11174
1.07589
1.04225
1.01062
0.980831
0.952718
0.92615
0.901003
0.877167
0.854544
0.833043
0.812584
0.793094
0.774505
0.756758
0.739796
0.72357
0.708032
0.69314
0.678855
0.665141
0.651965
0.639295
0.627103
0.615363
0.604051
0.593143
0.582619
0.572458
0.562642
0.553154
0.543979
0.5351
0.526504
0.518178
0.510108
0.502285
0.494695
0.48733
0.480179
0.473234
0.466485
0.459925
0.453545
0.447338
0.441298
0.435418
0.429691
0.424112
0.418675
0.413375
0.408208
0.403241
8.07067
6.69608
5.69885
4.94658
4.36122
3.89414
3.51361
3.19816
2.93275
2.7066
2.51176
2.34227
2.19357
2.06213
1.94514
1.8404
1.7461
1.66077
1.58322
1.51243
1.44758
1.38795
1.33296
1.28207
1.23487
1.19095
1.15001
1.11174
1.07589
1.04226
1.01063
0.980833
0.952721
0.926153
0.901006
0.877171
0.854547
0.833047
0.812588
0.793097
0.774508
0.756761
0.739799
0.723573
0.708035
0.693143
0.678858
0.665144
0.651967
0.639297
0.627106
0.615366
0.604053
0.593145
0.582621
0.57246
0.562644
0.553156
0.543981
0.535102
0.526506
0.518179
0.51011
0.502286
0.494697
0.487332
0.480181
0.473236
0.466487
0.459926
0.453546
0.44734
0.4413
0.435419
0.429693
0.424114
0.418677
0.413376
0.408209
0.403242
8.07067
6.69608
5.69885
4.94658
4.36122
3.89414
3.51361
3.19816
2.93275
2.7066
2.51176
2.34227
2.19357
2.06213
1.94514
1.8404
1.74609
1.66077
1.58321
1.51243
1.44758
1.38795
1.33296
1.28207
1.23487
1.19095
1.15001
1.11174
1.0759
1.04226
1.01063
0.980836
0.952723
0.926156
0.901009
0.877174
0.85455
0.83305
0.812591
0.7931
0.774511
0.756764
0.739802
0.723575
0.708037
0.693145
0.67886
0.665146
0.65197
0.6393
0.627108
0.615368
0.604055
0.593147
0.582623
0.572462
0.562646
0.553158
0.543983
0.535104
0.526508
0.518181
0.510112
0.502288
0.494698
0.487333
0.480183
0.473237
0.466488
0.459928
0.453548
0.447341
0.441301
0.435421
0.429694
0.424115
0.418678
0.413378
0.40821
0.403243
8.07067
6.69608
5.69885
4.94658
4.36122
3.89414
3.51361
3.19816
2.93275
2.7066
2.51176
2.34227
2.19357
2.06213
1.94514
1.8404
1.74609
1.66077
1.58321
1.51243
1.44758
1.38795
1.33296
1.28207
1.23487
1.19095
1.15001
1.11174
1.0759
1.04226
1.01063
0.980838
0.952726
0.926158
0.901012
0.877177
0.854553
0.833053
0.812594
0.793103
0.774514
0.756767
0.739805
0.723578
0.70804
0.693148
0.678863
0.665149
0.651972
0.639302
0.62711
0.61537
0.604057
0.593149
0.582625
0.572464
0.562648
0.55316
0.543984
0.535105
0.526509
0.518183
0.510113
0.502289
0.4947
0.487335
0.480184
0.473238
0.466489
0.459929
0.453549
0.447342
0.441302
0.435422
0.429695
0.424116
0.418679
0.413379
0.408211
0.403245
8.07067
6.69608
5.69885
4.94658
4.36122
3.89414
3.51361
3.19816
2.93275
2.7066
2.51176
2.34227
2.19357
2.06212
1.94514
1.8404
1.74609
1.66077
1.58321
1.51243
1.44758
1.38795
1.33296
1.28207
1.23487
1.19095
1.15001
1.11174
1.0759
1.04226
1.01063
0.98084
0.952728
0.926161
0.901014
0.877179
0.854556
0.833055
0.812596
0.793106
0.774517
0.756769
0.739807
0.72358
0.708042
0.69315
0.678865
0.665151
0.651974
0.639304
0.627112
0.615372
0.604059
0.593151
0.582626
0.572465
0.562649
0.553162
0.543986
0.535107
0.526511
0.518184
0.510115
0.502291
0.494701
0.487336
0.480185
0.47324
0.466491
0.45993
0.45355
0.447343
0.441303
0.435423
0.429696
0.424117
0.41868
0.41338
0.408212
0.403245
8.07067
6.69608
5.69885
4.94658
4.36122
3.89414
3.51361
3.19816
2.93275
2.7066
2.51176
2.34227
2.19357
2.06212
1.94514
1.8404
1.74609
1.66077
1.58321
1.51243
1.44758
1.38795
1.33296
1.28207
1.23487
1.19095
1.15001
1.11174
1.0759
1.04226
1.01063
0.980841
0.95273
0.926163
0.901016
0.877181
0.854558
0.833057
0.812598
0.793108
0.774519
0.756771
0.739809
0.723582
0.708044
0.693152
0.678867
0.665152
0.651975
0.639305
0.627113
0.615373
0.604061
0.593152
0.582628
0.572467
0.562651
0.553163
0.543987
0.535108
0.526512
0.518185
0.510116
0.502292
0.494702
0.487337
0.480186
0.473241
0.466492
0.459931
0.453551
0.447344
0.441304
0.435424
0.429697
0.424118
0.418681
0.41338
0.408213
0.403246
8.07067
6.69608
5.69885
4.94658
4.36122
3.89414
3.51361
3.19816
2.93275
2.7066
2.51176
2.34227
2.19357
2.06212
1.94514
1.8404
1.74609
1.66077
1.58321
1.51243
1.44758
1.38795
1.33295
1.28207
1.23487
1.19095
1.15001
1.11174
1.0759
1.04226
1.01064
0.980843
0.952731
0.926164
0.901018
0.877183
0.85456
0.833059
0.8126
0.793109
0.77452
0.756773
0.739811
0.723584
0.708045
0.693153
0.678868
0.665154
0.651977
0.639306
0.627115
0.615374
0.604062
0.593153
0.582629
0.572468
0.562652
0.553164
0.543988
0.535109
0.526513
0.518186
0.510117
0.502293
0.494703
0.487338
0.480187
0.473241
0.466492
0.459932
0.453552
0.447345
0.441305
0.435424
0.429698
0.424118
0.418681
0.413381
0.408213
0.403247
8.07067
6.69608
5.69885
4.94658
4.36122
3.89414
3.51361
3.19816
2.93275
2.7066
2.51176
2.34227
2.19357
2.06212
1.94514
1.8404
1.74609
1.66077
1.58321
1.51243
1.44758
1.38795
1.33295
1.28207
1.23487
1.19095
1.15001
1.11174
1.0759
1.04226
1.01064
0.980843
0.952732
0.926165
0.901019
0.877184
0.854561
0.83306
0.812601
0.79311
0.774521
0.756774
0.739812
0.723585
0.708046
0.693154
0.678869
0.665154
0.651978
0.639307
0.627115
0.615375
0.604062
0.593154
0.582629
0.572468
0.562652
0.553164
0.543989
0.53511
0.526513
0.518187
0.510117
0.502293
0.494704
0.487338
0.480187
0.473242
0.466493
0.459932
0.453552
0.447346
0.441305
0.435425
0.429698
0.424119
0.418682
0.413381
0.408214
0.403247
8.07067
6.69608
5.69885
4.94658
4.36122
3.89414
3.51361
3.19816
2.93275
2.7066
2.51176
2.34227
2.19357
2.06212
1.94514
1.8404
1.74609
1.66077
1.58321
1.51243
1.44758
1.38795
1.33295
1.28207
1.23487
1.19095
1.15001
1.11174
1.0759
1.04226
1.01064
0.980844
0.952733
0.926165
0.901019
0.877184
0.854561
0.833061
0.812602
0.793111
0.774522
0.756774
0.739812
0.723585
0.708047
0.693155
0.678869
0.665155
0.651978
0.639308
0.627116
0.615376
0.604063
0.593155
0.58263
0.572469
0.562653
0.553165
0.543989
0.53511
0.526514
0.518187
0.510117
0.502293
0.494704
0.487339
0.480188
0.473242
0.466493
0.459932
0.453552
0.447346
0.441306
0.435425
0.429698
0.424119
0.418682
0.413382
0.408214
0.403247
8.07067
6.69608
5.69885
4.94658
4.36122
3.89414
3.51361
3.19816
2.93275
2.7066
2.51176
2.34227
2.19357
2.06212
1.94514
1.8404
1.74609
1.66077
1.58321
1.51243
1.44758
1.38795
1.33295
1.28207
1.23487
1.19095
1.15001
1.11174
1.0759
1.04226
1.01064
0.980844
0.952733
0.926165
0.901019
0.877184
0.854561
0.833061
0.812601
0.793111
0.774522
0.756774
0.739812
0.723585
0.708047
0.693155
0.678869
0.665155
0.651978
0.639308
0.627116
0.615375
0.604063
0.593155
0.58263
0.572469
0.562653
0.553165
0.543989
0.53511
0.526514
0.518187
0.510117
0.502293
0.494704
0.487339
0.480188
0.473242
0.466493
0.459932
0.453552
0.447346
0.441306
0.435425
0.429698
0.424119
0.418682
0.413382
0.408214
0.403247
8.07067
6.69608
5.69885
4.94658
4.36122
3.89414
3.51361
3.19816
2.93275
2.7066
2.51176
2.34227
2.19357
2.06212
1.94514
1.8404
1.74609
1.66077
1.58321
1.51243
1.44758
1.38795
1.33295
1.28207
1.23487
1.19095
1.15001
1.11174
1.0759
1.04226
1.01064
0.980843
0.952732
0.926165
0.901019
0.877184
0.854561
0.83306
0.812601
0.79311
0.774521
0.756774
0.739811
0.723584
0.708046
0.693154
0.678869
0.665154
0.651977
0.639307
0.627115
0.615375
0.604062
0.593154
0.582629
0.572468
0.562652
0.553164
0.543988
0.535109
0.526513
0.518187
0.510117
0.502293
0.494704
0.487338
0.480187
0.473242
0.466493
0.459932
0.453552
0.447346
0.441305
0.435425
0.429698
0.424119
0.418682
0.413381
0.408214
0.403247
8.07067
6.69608
5.69885
4.94658
4.36122
3.89414
3.51361
3.19816
2.93275
2.7066
2.51176
2.34227
2.19357
2.06212
1.94514
1.8404
1.74609
1.66077
1.58321
1.51243
1.44758
1.38795
1.33295
1.28207
1.23487
1.19095
1.15001
1.11174
1.0759
1.04226
1.01063
0.980842
0.952731
0.926164
0.901018
0.877182
0.854559
0.833059
0.8126
0.793109
0.77452
0.756772
0.73981
0.723583
0.708045
0.693153
0.678868
0.665153
0.651976
0.639306
0.627114
0.615374
0.604061
0.593153
0.582629
0.572467
0.562651
0.553164
0.543988
0.535109
0.526513
0.518186
0.510116
0.502292
0.494703
0.487338
0.480187
0.473241
0.466492
0.459932
0.453552
0.447345
0.441305
0.435424
0.429698
0.424118
0.418681
0.413381
0.408213
0.403247
8.07067
6.69608
5.69885
4.94658
4.36122
3.89414
3.51361
3.19816
2.93275
2.7066
2.51176
2.34227
2.19357
2.06212
1.94514
1.8404
1.74609
1.66077
1.58321
1.51243
1.44758
1.38795
1.33295
1.28207
1.23487
1.19095
1.15001
1.11174
1.0759
1.04226
1.01063
0.980841
0.952729
0.926162
0.901016
0.877181
0.854558
0.833057
0.812598
0.793107
0.774518
0.756771
0.739809
0.723582
0.708044
0.693152
0.678866
0.665152
0.651975
0.639305
0.627113
0.615373
0.60406
0.593152
0.582627
0.572466
0.56265
0.553163
0.543987
0.535108
0.526512
0.518185
0.510115
0.502292
0.494702
0.487337
0.480186
0.47324
0.466491
0.459931
0.453551
0.447344
0.441304
0.435424
0.429697
0.424118
0.418681
0.41338
0.408213
0.403246
8.07067
6.69608
5.69885
4.94658
4.36122
3.89414
3.51361
3.19816
2.93275
2.7066
2.51176
2.34227
2.19357
2.06212
1.94514
1.8404
1.74609
1.66077
1.58321
1.51243
1.44758
1.38795
1.33296
1.28207
1.23487
1.19095
1.15001
1.11174
1.0759
1.04226
1.01063
0.980839
0.952727
0.92616
0.901014
0.877178
0.854555
0.833055
0.812596
0.793105
0.774516
0.756769
0.739807
0.72358
0.708042
0.69315
0.678864
0.66515
0.651973
0.639303
0.627111
0.615371
0.604059
0.593151
0.582626
0.572465
0.562649
0.553161
0.543985
0.535106
0.52651
0.518184
0.510114
0.50229
0.494701
0.487336
0.480185
0.473239
0.46649
0.45993
0.45355
0.447343
0.441303
0.435423
0.429696
0.424117
0.41868
0.413379
0.408212
0.403245
8.07067
6.69608
5.69885
4.94658
4.36122
3.89414
3.51361
3.19816
2.93275
2.7066
2.51176
2.34227
2.19357
2.06213
1.94514
1.8404
1.74609
1.66077
1.58321
1.51243
1.44758
1.38795
1.33296
1.28207
1.23487
1.19095
1.15001
1.11174
1.0759
1.04226
1.01063
0.980837
0.952725
0.926157
0.901011
0.877176
0.854553
0.833052
0.812593
0.793102
0.774514
0.756766
0.739804
0.723577
0.708039
0.693147
0.678862
0.665148
0.651971
0.639301
0.627109
0.61537
0.604057
0.593149
0.582624
0.572463
0.562647
0.55316
0.543984
0.535105
0.526509
0.518182
0.510113
0.502289
0.4947
0.487334
0.480184
0.473238
0.466489
0.459929
0.453549
0.447342
0.441302
0.435422
0.429695
0.424116
0.418679
0.413378
0.408211
0.403244
8.07067
6.69608
5.69885
4.94658
4.36122
3.89414
3.51361
3.19816
2.93275
2.7066
2.51176
2.34227
2.19357
2.06213
1.94514
1.8404
1.74609
1.66077
1.58321
1.51243
1.44758
1.38795
1.33296
1.28207
1.23487
1.19095
1.15001
1.11174
1.0759
1.04226
1.01063
0.980835
0.952723
0.926155
0.901008
0.877173
0.85455
0.833049
0.81259
0.793099
0.774511
0.756763
0.739801
0.723575
0.708037
0.693145
0.67886
0.665146
0.651969
0.639299
0.627107
0.615367
0.604055
0.593147
0.582622
0.572461
0.562646
0.553158
0.543982
0.535103
0.526507
0.518181
0.510111
0.502288
0.494698
0.487333
0.480182
0.473237
0.466488
0.459927
0.453547
0.447341
0.441301
0.43542
0.429694
0.424115
0.418678
0.413377
0.40821
0.403243
8.07067
6.69608
5.69885
4.94658
4.36122
3.89414
3.51361
3.19816
2.93275
2.7066
2.51176
2.34227
2.19357
2.06213
1.94514
1.8404
1.7461
1.66077
1.58321
1.51243
1.44758
1.38795
1.33296
1.28207
1.23487
1.19095
1.15001
1.11174
1.07589
1.04226
1.01063
0.980832
0.95272
0.926152
0.901005
0.87717
0.854546
0.833046
0.812587
0.793096
0.774508
0.75676
0.739798
0.723572
0.708034
0.693142
0.678857
0.665143
0.651967
0.639297
0.627105
0.615365
0.604053
0.593145
0.58262
0.572459
0.562644
0.553156
0.54398
0.535102
0.526505
0.518179
0.51011
0.502286
0.494697
0.487331
0.480181
0.473235
0.466486
0.459926
0.453546
0.44734
0.441299
0.435419
0.429692
0.424113
0.418676
0.413376
0.408209
0.403242
8.07067
6.69608
5.69885
4.94658
4.36122
3.89414
3.51361
3.19816
2.93275
2.7066
2.51176
2.34227
2.19357
2.06213
1.94514
1.8404
1.7461
1.66077
1.58322
1.51243
1.44758
1.38795
1.33296
1.28207
1.23487
1.19095
1.15
1.11174
1.07589
1.04225
1.01062
0.980829
0.952717
0.926149
0.901002
0.877166
0.854543
0.833042
0.812583
0.793093
0.774504
0.756757
0.739795
0.723569
0.708031
0.693139
0.678855
0.665141
0.651964
0.639294
0.627103
0.615363
0.60405
0.593143
0.582618
0.572457
0.562642
0.553154
0.543978
0.5351
0.526504
0.518177
0.510108
0.502284
0.494695
0.48733
0.480179
0.473234
0.466485
0.459924
0.453545
0.447338
0.441298
0.435418
0.429691
0.424112
0.418675
0.413375
0.408207
0.403241
8.07067
6.69608
5.69885
4.94658
4.36122
3.89414
3.51361
3.19816
2.93275
2.7066
2.51176
2.34227
2.19357
2.06213
1.94515
1.8404
1.7461
1.66077
1.58322
1.51243
1.44758
1.38796
1.33296
1.28207
1.23487
1.19095
1.15
1.11173
1.07589
1.04225
1.01062
0.980827
0.952714
0.926146
0.900999
0.877163
0.85454
0.833039
0.81258
0.79309
0.774501
0.756754
0.739792
0.723566
0.708028
0.693137
0.678852
0.665138
0.651961
0.639292
0.6271
0.61536
0.604048
0.59314
0.582616
0.572455
0.56264
0.553152
0.543976
0.535098
0.526502
0.518175
0.510106
0.502283
0.494693
0.487328
0.480178
0.473232
0.466483
0.459923
0.453543
0.447337
0.441297
0.435416
0.42969
0.424111
0.418674
0.413374
0.408206
0.40324
8.07067
6.69608
5.69885
4.94658
4.36122
3.89414
3.51361
3.19816
2.93275
2.7066
2.51176
2.34227
2.19357
2.06213
1.94515
1.8404
1.7461
1.66077
1.58322
1.51243
1.44758
1.38796
1.33296
1.28207
1.23486
1.19095
1.15
1.11173
1.07589
1.04225
1.01062
0.980824
0.952711
0.926143
0.900995
0.87716
0.854536
0.833036
0.812577
0.793087
0.774498
0.756751
0.739789
0.723563
0.708025
0.693134
0.678849
0.665135
0.651959
0.639289
0.627098
0.615358
0.604046
0.593138
0.582614
0.572453
0.562638
0.55315
0.543975
0.535096
0.5265
0.518174
0.510105
0.502281
0.494692
0.487327
0.480176
0.473231
0.466482
0.459922
0.453542
0.447335
0.441295
0.435415
0.429689
0.42411
0.418673
0.413372
0.408205
0.403239
8.07067
6.69608
5.69885
4.94658
4.36122
3.89414
3.51361
3.19816
2.93275
2.7066
2.51176
2.34227
2.19357
2.06213
1.94515
1.8404
1.7461
1.66077
1.58322
1.51243
1.44758
1.38796
1.33296
1.28207
1.23486
1.19095
1.15
1.11173
1.07589
1.04225
1.01062
0.980822
0.952709
0.92614
0.900992
0.877157
0.854533
0.833032
0.812574
0.793083
0.774495
0.756748
0.739786
0.72356
0.708023
0.693131
0.678846
0.665133
0.651956
0.639287
0.627095
0.615356
0.604044
0.593136
0.582612
0.572451
0.562636
0.553148
0.543973
0.535094
0.526498
0.518172
0.510103
0.502279
0.49469
0.487325
0.480174
0.473229
0.46648
0.45992
0.45354
0.447334
0.441294
0.435414
0.429687
0.424108
0.418671
0.413371
0.408204
0.403237
8.07067
6.69608
5.69885
4.94658
4.36122
3.89414
3.51361
3.19816
2.93275
2.7066
2.51176
2.34227
2.19357
2.06213
1.94515
1.8404
1.7461
1.66077
1.58322
1.51243
1.44758
1.38796
1.33296
1.28207
1.23486
1.19095
1.15
1.11173
1.07589
1.04225
1.01061
0.980819
0.952706
0.926137
0.90099
0.877154
0.85453
0.833029
0.812571
0.79308
0.774492
0.756745
0.739784
0.723557
0.70802
0.693128
0.678844
0.66513
0.651954
0.639284
0.627093
0.615354
0.604041
0.593134
0.58261
0.572449
0.562634
0.553146
0.543971
0.535092
0.526496
0.51817
0.510101
0.502278
0.494688
0.487324
0.480173
0.473228
0.466479
0.459919
0.453539
0.447333
0.441293
0.435413
0.429686
0.424107
0.41867
0.41337
0.408203
0.403236
8.07067
6.69608
5.69885
4.94658
4.36122
3.89414
3.51361
3.19816
2.93275
2.7066
2.51176
2.34227
2.19358
2.06213
1.94515
1.8404
1.7461
1.66077
1.58322
1.51243
1.44758
1.38796
1.33296
1.28207
1.23486
1.19095
1.15
1.11173
1.07588
1.04224
1.01061
0.980817
0.952703
0.926134
0.900987
0.877151
0.854527
0.833027
0.812568
0.793077
0.774489
0.756742
0.739781
0.723555
0.708017
0.693126
0.678841
0.665128
0.651952
0.639282
0.627091
0.615351
0.604039
0.593132
0.582608
0.572447
0.562632
0.553144
0.543969
0.535091
0.526495
0.518169
0.5101
0.502276
0.494687
0.487322
0.480172
0.473226
0.466478
0.459917
0.453538
0.447331
0.441291
0.435411
0.429685
0.424106
0.418669
0.413369
0.408202
0.403235
8.07067
6.69608
5.69885
4.94658
4.36122
3.89414
3.51361
3.19816
2.93275
2.7066
2.51176
2.34227
2.19358
2.06213
1.94515
1.8404
1.7461
1.66077
1.58322
1.51244
1.44758
1.38796
1.33296
1.28207
1.23486
1.19095
1.15
1.11173
1.07588
1.04224
1.01061
0.980815
0.952701
0.926132
0.900984
0.877148
0.854525
0.833024
0.812565
0.793075
0.774487
0.756739
0.739778
0.723552
0.708015
0.693123
0.678839
0.665126
0.651949
0.63928
0.627089
0.615349
0.604037
0.59313
0.582606
0.572445
0.56263
0.553143
0.543967
0.535089
0.526493
0.518167
0.510098
0.502275
0.494686
0.487321
0.48017
0.473225
0.466476
0.459916
0.453537
0.44733
0.44129
0.43541
0.429684
0.424105
0.418668
0.413368
0.408201
0.403234
8.07067
6.69608
5.69885
4.94658
4.36122
3.89414
3.51361
3.19816
2.93275
2.7066
2.51176
2.34227
2.19358
2.06213
1.94515
1.8404
1.7461
1.66077
1.58322
1.51244
1.44758
1.38796
1.33296
1.28207
1.23486
1.19095
1.15
1.11173
1.07588
1.04224
1.01061
0.980813
0.952699
0.926129
0.900982
0.877146
0.854522
0.833021
0.812562
0.793072
0.774484
0.756737
0.739776
0.72355
0.708013
0.693121
0.678837
0.665123
0.651947
0.639278
0.627087
0.615348
0.604036
0.593128
0.582604
0.572444
0.562628
0.553141
0.543966
0.535087
0.526492
0.518166
0.510097
0.502273
0.494684
0.487319
0.480169
0.473224
0.466475
0.459915
0.453535
0.447329
0.441289
0.435409
0.429683
0.424104
0.418667
0.413367
0.4082
0.403233
8.07067
6.69608
5.69885
4.94658
4.36122
3.89414
3.51361
3.19816
2.93275
2.7066
2.51176
2.34227
2.19358
2.06213
1.94515
1.8404
1.7461
1.66078
1.58322
1.51244
1.44758
1.38796
1.33296
1.28207
1.23486
1.19095
1.15
1.11173
1.07588
1.04224
1.01061
0.980811
0.952697
0.926127
0.90098
0.877144
0.85452
0.833019
0.81256
0.79307
0.774482
0.756735
0.739774
0.723548
0.70801
0.693119
0.678835
0.665122
0.651946
0.639276
0.627085
0.615346
0.604034
0.593127
0.582603
0.572442
0.562627
0.55314
0.543964
0.535086
0.52649
0.518164
0.510095
0.502272
0.494683
0.487318
0.480168
0.473223
0.466474
0.459914
0.453534
0.447328
0.441288
0.435408
0.429682
0.424103
0.418666
0.413366
0.408199
0.403233
8.07067
6.69608
5.69885
4.94658
4.36122
3.89414
3.51361
3.19816
2.93275
2.7066
2.51176
2.34227
2.19358
2.06213
1.94515
1.8404
1.7461
1.66078
1.58322
1.51244
1.44758
1.38796
1.33296
1.28207
1.23486
1.19095
1.15
1.11173
1.07588
1.04224
1.01061
0.98081
0.952695
0.926126
0.900978
0.877142
0.854518
0.833017
0.812558
0.793068
0.77448
0.756733
0.739772
0.723546
0.708009
0.693117
0.678833
0.66512
0.651944
0.639275
0.627084
0.615344
0.604032
0.593125
0.582601
0.572441
0.562626
0.553138
0.543963
0.535085
0.526489
0.518163
0.510094
0.502271
0.494682
0.487317
0.480167
0.473222
0.466473
0.459913
0.453533
0.447327
0.441287
0.435407
0.429681
0.424102
0.418665
0.413365
0.408198
0.403232
8.07067
6.69608
5.69885
4.94658
4.36122
3.89414
3.51361
3.19816
2.93275
2.7066
2.51176
2.34227
2.19358
2.06213
1.94515
1.8404
1.7461
1.66078
1.58322
1.51244
1.44758
1.38796
1.33296
1.28207
1.23486
1.19095
1.15
1.11172
1.07588
1.04224
1.0106
0.980808
0.952694
0.926124
0.900976
0.87714
0.854516
0.833015
0.812556
0.793066
0.774478
0.756731
0.73977
0.723544
0.708007
0.693116
0.678832
0.665118
0.651942
0.639273
0.627082
0.615343
0.604031
0.593124
0.5826
0.57244
0.562625
0.553137
0.543962
0.535084
0.526488
0.518162
0.510093
0.50227
0.494681
0.487316
0.480166
0.473221
0.466472
0.459912
0.453533
0.447327
0.441287
0.435407
0.42968
0.424101
0.418665
0.413365
0.408197
0.403231
8.07067
6.69608
5.69885
4.94658
4.36122
3.89414
3.51361
3.19816
2.93275
2.7066
2.51176
2.34227
2.19358
2.06213
1.94515
1.8404
1.7461
1.66078
1.58322
1.51244
1.44758
1.38796
1.33296
1.28207
1.23486
1.19095
1.15
1.11172
1.07588
1.04224
1.0106
0.980807
0.952693
0.926123
0.900975
0.877139
0.854515
0.833014
0.812555
0.793065
0.774477
0.75673
0.739769
0.723543
0.708006
0.693115
0.678831
0.665117
0.651941
0.639272
0.627081
0.615342
0.60403
0.593123
0.582599
0.572439
0.562624
0.553137
0.543962
0.535083
0.526488
0.518162
0.510093
0.502269
0.494681
0.487316
0.480166
0.47322
0.466472
0.459912
0.453532
0.447326
0.441286
0.435406
0.42968
0.424101
0.418664
0.413364
0.408197
0.403231
8.07067
6.69608
5.69885
4.94658
4.36122
3.89414
3.51361
3.19816
2.93275
2.7066
2.51176
2.34227
2.19358
2.06213
1.94515
1.84041
1.7461
1.66078
1.58322
1.51244
1.44758
1.38796
1.33296
1.28207
1.23486
1.19095
1.15
1.11173
1.07588
1.04224
1.01061
0.980809
0.952695
0.926125
0.900977
0.877141
0.854517
0.833016
0.812557
0.793067
0.774479
0.756732
0.739771
0.723545
0.708008
0.693117
0.678832
0.665119
0.651943
0.639274
0.627083
0.615344
0.604032
0.593124
0.5826
0.57244
0.562625
0.553138
0.543962
0.535084
0.526489
0.518163
0.510094
0.50227
0.494681
0.487317
0.480166
0.473221
0.466473
0.459912
0.453533
0.447327
0.441287
0.435407
0.42968
0.424102
0.418665
0.413365
0.408198
0.403231
8.07067
6.69608
5.69885
4.94658
4.36122
3.89414
3.51361
3.19816
2.93275
2.7066
2.51176
2.34227
2.19358
2.06213
1.94515
1.84041
1.7461
1.66078
1.58322
1.51244
1.44758
1.38796
1.33296
1.28207
1.23486
1.19095
1.15
1.11173
1.07588
1.04224
1.01061
0.98081
0.952696
0.926126
0.900979
0.877142
0.854519
0.833018
0.812559
0.793069
0.77448
0.756733
0.739772
0.723546
0.708009
0.693118
0.678833
0.66512
0.651944
0.639275
0.627084
0.615344
0.604033
0.593125
0.582601
0.572441
0.562626
0.553138
0.543963
0.535085
0.526489
0.518163
0.510094
0.502271
0.494682
0.487317
0.480167
0.473222
0.466473
0.459913
0.453533
0.447327
0.441287
0.435407
0.429681
0.424102
0.418665
0.413365
0.408198
0.403232
8.07067
6.69608
5.69885
4.94658
4.36122
3.89414
3.51361
3.19816
2.93275
2.7066
2.51176
2.34227
2.19358
2.06213
1.94515
1.84041
1.7461
1.66078
1.58322
1.51244
1.44759
1.38796
1.33296
1.28207
1.23486
1.19095
1.15
1.11173
1.07588
1.04224
1.01061
0.980812
0.952698
0.926128
0.90098
0.877144
0.854521
0.83302
0.812561
0.793071
0.774482
0.756735
0.739774
0.723548
0.708011
0.693119
0.678835
0.665122
0.651946
0.639276
0.627085
0.615346
0.604034
0.593127
0.582603
0.572442
0.562627
0.55314
0.543964
0.535086
0.52649
0.518164
0.510095
0.502272
0.494683
0.487318
0.480168