/*--------------------------------*- C++ -*----------------------------------*\
| =========                 |                                                 |
| \\      /  F ield         | OpenFOAM: The Open Source CFD Toolbox           |
|  \\    /   O peration     | Version:  2512                                  |
|   \\  /    A nd           | Website:  www.openfoam.com                      |
|    \\/     M anipulation  |                                                 |
\*---------------------------------------------------------------------------*/
FoamFile
{
    version     2.0;
    format      ascii;
    arch        "LSB;label=32;scalar=64";
    class       volScalarField;
    location    "159";
    object      p;
}
// * * * * * * * * * * * * * * * * * * * * * * * * * * * * * * * * * * * * * //

dimensions      [0 2 -2 0 0 0 0];

internalField   nonuniform List<scalar> 
229904
(
6.84433e-06
6.83819e-06
6.82209e-06
6.7962e-06
6.7601e-06
6.71231e-06
6.65084e-06
6.5733e-06
6.47683e-06
6.35802e-06
6.21289e-06
6.03693e-06
5.82508e-06
5.57188e-06
5.27163e-06
4.91864e-06
4.50762e-06
4.03421e-06
3.49564e-06
2.89149e-06
2.22455e-06
1.5017e-06
7.3459e-07
-5.99416e-08
-8.60022e-07
-1.63956e-06
-2.36988e-06
-3.02211e-06
-3.57015e-06
-3.99359e-06
-4.28034e-06
-4.42798e-06
-4.44378e-06
-4.34325e-06
-4.1476e-06
-3.88073e-06
-3.56651e-06
-3.22666e-06
-2.87945e-06
-2.53918e-06
-2.21619e-06
-1.91729e-06
-1.64633e-06
-1.40484e-06
-1.19261e-06
-1.00829e-06
-8.49777e-07
-7.14575e-07
-6.0004e-07
-5.03556e-07
-4.22643e-07
-3.55028e-07
-2.98673e-07
-2.51786e-07
-2.12813e-07
-1.80426e-07
-1.53494e-07
-1.3107e-07
-1.12361e-07
-9.67083e-08
-8.35668e-08
-7.2488e-08
-6.31031e-08
-5.51096e-08
-4.82603e-08
-4.23528e-08
-3.72218e-08
-3.27318e-08
-2.87713e-08
-2.52484e-08
-2.20868e-08
-1.9223e-08
-1.66036e-08
-1.41838e-08
-1.19252e-08
-9.79471e-09
-7.76188e-09
-5.80463e-09
-3.85747e-09
-2.32394e-09
6.84628e-06
6.84017e-06
6.82423e-06
6.79859e-06
6.76283e-06
6.71547e-06
6.65454e-06
6.57765e-06
6.48195e-06
6.36404e-06
6.21994e-06
6.04511e-06
5.83448e-06
5.58256e-06
5.28358e-06
4.93175e-06
4.52168e-06
4.04887e-06
3.51035e-06
2.90553e-06
2.23701e-06
1.51153e-06
7.40652e-07
-5.87399e-08
-8.64579e-07
-1.65041e-06
-2.38702e-06
-3.04492e-06
-3.59734e-06
-4.02338e-06
-4.31063e-06
-4.45671e-06
-4.4692e-06
-4.36413e-06
-4.16334e-06
-3.89131e-06
-3.57238e-06
-3.22853e-06
-2.87816e-06
-2.53557e-06
-2.21104e-06
-1.91125e-06
-1.63992e-06
-1.39843e-06
-1.18648e-06
-1.0026e-06
-8.44624e-07
-7.09997e-07
-5.96036e-07
-5.00097e-07
-4.19686e-07
-3.52522e-07
-2.96565e-07
-2.50023e-07
-2.11347e-07
-1.79211e-07
-1.52491e-07
-1.30244e-07
-1.11682e-07
-9.6151e-08
-8.31099e-08
-7.21135e-08
-6.2796e-08
-5.48578e-08
-4.80535e-08
-4.21828e-08
-3.70819e-08
-3.26166e-08
-2.86765e-08
-2.51705e-08
-2.20229e-08
-1.91708e-08
-1.65614e-08
-1.415e-08
-1.18985e-08
-9.77407e-09
-7.74647e-09
-5.79287e-09
-3.85311e-09
-2.29722e-09
6.85006e-06
6.84407e-06
6.82844e-06
6.80328e-06
6.76818e-06
6.72167e-06
6.6618e-06
6.5862e-06
6.49203e-06
6.37589e-06
6.2338e-06
6.06121e-06
5.85301e-06
5.60361e-06
5.30714e-06
4.95764e-06
4.54948e-06
4.07786e-06
3.5395e-06
2.93339e-06
2.26181e-06
1.53116e-06
7.52863e-07
-5.6128e-08
-8.73374e-07
-1.67169e-06
-2.42083e-06
-3.09002e-06
-3.65121e-06
-4.08245e-06
-4.37075e-06
-4.51373e-06
-4.51962e-06
-4.40553e-06
-4.19453e-06
-3.91227e-06
-3.58397e-06
-3.23219e-06
-2.87556e-06
-2.5284e-06
-2.20083e-06
-1.89928e-06
-1.62721e-06
-1.38574e-06
-1.17434e-06
-9.91341e-07
-8.3443e-07
-7.00941e-07
-5.88113e-07
-4.93253e-07
-4.13836e-07
-3.47565e-07
-2.92394e-07
-2.46535e-07
-2.08444e-07
-1.76805e-07
-1.50504e-07
-1.28607e-07
-1.10336e-07
-9.50456e-08
-8.22029e-08
-7.13695e-08
-6.21857e-08
-5.43566e-08
-4.76414e-08
-4.18435e-08
-3.68022e-08
-3.23857e-08
-2.84858e-08
-2.5013e-08
-2.18931e-08
-1.90641e-08
-1.64741e-08
-1.40792e-08
-1.18419e-08
-9.72944e-09
-7.71199e-09
-5.76636e-09
-3.83339e-09
-2.26542e-09
6.85565e-06
6.84983e-06
6.83464e-06
6.8102e-06
6.77606e-06
6.73081e-06
6.67251e-06
6.59881e-06
6.50689e-06
6.39337e-06
6.25427e-06
6.085e-06
5.88039e-06
5.63475e-06
5.34203e-06
4.99601e-06
4.59073e-06
4.12095e-06
3.58288e-06
2.97497e-06
2.2989e-06
1.56065e-06
7.7138e-07
-5.18772e-08
-8.86132e-07
-1.70313e-06
-2.47103e-06
-3.15717e-06
-3.73155e-06
-4.17059e-06
-4.46042e-06
-4.59871e-06
-4.59464e-06
-4.46696e-06
-4.24064e-06
-3.94307e-06
-3.60083e-06
-3.23727e-06
-2.8714e-06
-2.51751e-06
-2.18548e-06
-1.8814e-06
-1.60829e-06
-1.36689e-06
-1.15633e-06
-9.74666e-07
-8.1935e-07
-6.87558e-07
-5.76416e-07
-4.83156e-07
-4.05209e-07
-3.40257e-07
-2.86249e-07
-2.41397e-07
-2.04171e-07
-1.73264e-07
-1.4758e-07
-1.26199e-07
-1.08356e-07
-9.34198e-08
-8.08691e-08
-7.02755e-08
-6.1288e-08
-5.36194e-08
-4.70353e-08
-4.13443e-08
-3.63904e-08
-3.20457e-08
-2.82048e-08
-2.47807e-08
-2.17012e-08
-1.89061e-08
-1.63448e-08
-1.39742e-08
-1.17578e-08
-9.66319e-09
-7.66098e-09
-5.72808e-09
-3.80614e-09
-2.23728e-09
6.86288e-06
6.85729e-06
6.84268e-06
6.81916e-06
6.78629e-06
6.74267e-06
6.6864e-06
6.61517e-06
6.52619e-06
6.41608e-06
6.28088e-06
6.11595e-06
5.91605e-06
5.67535e-06
5.38756e-06
5.04616e-06
4.64473e-06
4.17748e-06
3.63993e-06
3.02979e-06
2.348e-06
1.59991e-06
7.96324e-07
-4.56467e-08
-9.02314e-07
-1.74401e-06
-2.53683e-06
-3.24552e-06
-3.83746e-06
-4.28688e-06
-4.5787e-06
-4.71064e-06
-4.69322e-06
-4.5474e-06
-4.30071e-06
-3.9829e-06
-3.62229e-06
-3.24331e-06
-2.8654e-06
-2.50281e-06
-2.16506e-06
-1.85776e-06
-1.58339e-06
-1.34218e-06
-1.13278e-06
-9.52891e-07
-7.99687e-07
-6.70129e-07
-5.61198e-07
-4.70031e-07
-3.94004e-07
-3.30772e-07
-2.78275e-07
-2.34734e-07
-1.98629e-07
-1.68675e-07
-1.43791e-07
-1.23078e-07
-1.0579e-07
-9.1313e-08
-7.91406e-08
-6.88577e-08
-6.01247e-08
-5.26639e-08
-4.62495e-08
-4.06971e-08
-3.58565e-08
-3.16046e-08
-2.78401e-08
-2.44792e-08
-2.14521e-08
-1.87009e-08
-1.61767e-08
-1.3838e-08
-1.16489e-08
-9.57784e-09
-7.59591e-09
-5.68045e-09
-3.77408e-09
-2.21336e-09
6.87161e-06
6.86628e-06
6.85238e-06
6.82997e-06
6.79863e-06
6.75698e-06
6.70317e-06
6.63493e-06
6.5495e-06
6.44355e-06
6.31307e-06
6.15344e-06
5.95929e-06
5.72464e-06
5.44293e-06
5.10725e-06
4.71065e-06
4.24665e-06
3.70995e-06
3.09732e-06
2.40878e-06
1.64886e-06
8.27891e-07
-3.69682e-08
-9.21213e-07
-1.79346e-06
-2.61721e-06
-3.35399e-06
-3.96784e-06
-4.43021e-06
-4.72444e-06
-4.84835e-06
-4.81414e-06
-4.64564e-06
-4.37361e-06
-4.03076e-06
-3.64758e-06
-3.24978e-06
-2.85727e-06
-2.48419e-06
-2.13965e-06
-1.82859e-06
-1.55282e-06
-1.31194e-06
-1.10405e-06
-9.26394e-07
-7.75805e-07
-6.48993e-07
-5.42766e-07
-4.54151e-07
-3.80459e-07
-3.19314e-07
-2.6865e-07
-2.26695e-07
-1.91947e-07
-1.63142e-07
-1.39224e-07
-1.19317e-07
-1.027e-07
-8.87761e-08
-7.70596e-08
-6.7151e-08
-5.87243e-08
-5.15138e-08
-4.53036e-08
-3.9918e-08
-3.52138e-08
-3.10736e-08
-2.7401e-08
-2.41159e-08
-2.11519e-08
-1.84536e-08
-1.59742e-08
-1.3674e-08
-1.1518e-08
-9.47579e-09
-7.51879e-09
-5.62508e-09
-3.73831e-09
-2.19236e-09
6.88162e-06
6.8766e-06
6.86351e-06
6.84238e-06
6.81279e-06
6.77341e-06
6.72243e-06
6.65764e-06
6.57632e-06
6.47515e-06
6.35017e-06
6.19667e-06
6.00922e-06
5.78164e-06
5.50708e-06
5.17818e-06
4.78737e-06
4.32739e-06
3.79195e-06
3.17675e-06
2.48067e-06
1.70725e-06
8.6618e-07
-2.53755e-08
-9.42013e-07
-1.85037e-06
-2.71085e-06
-3.48112e-06
-4.12115e-06
-4.59896e-06
-4.89598e-06
-5.01011e-06
-4.95568e-06
-4.76e-06
-4.45783e-06
-4.08539e-06
-3.67574e-06
-3.25602e-06
-2.84665e-06
-2.4616e-06
-2.10939e-06
-1.79418e-06
-1.517e-06
-1.27666e-06
-1.07065e-06
-8.95674e-07
-7.48178e-07
-6.24588e-07
-5.21517e-07
-4.35867e-07
-3.64881e-07
-3.06148e-07
-2.57598e-07
-2.17471e-07
-1.84284e-07
-1.568e-07
-1.33991e-07
-1.1501e-07
-9.91598e-08
-8.58709e-08
-7.46768e-08
-6.51969e-08
-5.71211e-08
-5.01972e-08
-4.42209e-08
-3.90262e-08
-3.4478e-08
-3.04658e-08
-2.68984e-08
-2.37002e-08
-2.08085e-08
-1.81708e-08
-1.5743e-08
-1.34871e-08
-1.13696e-08
-9.36087e-09
-7.43301e-09
-5.56475e-09
-3.70083e-09
-2.17386e-09
6.89268e-06
6.88801e-06
6.87581e-06
6.85609e-06
6.82845e-06
6.79158e-06
6.74375e-06
6.68279e-06
6.60603e-06
6.5102e-06
6.39134e-06
6.24471e-06
6.06479e-06
5.84519e-06
5.57874e-06
5.2576e-06
4.87352e-06
4.41835e-06
3.8847e-06
3.26702e-06
2.56289e-06
1.77465e-06
9.11201e-07
-1.03896e-08
-9.63778e-07
-1.91338e-06
-2.81607e-06
-3.625e-06
-4.29532e-06
-4.79099e-06
-5.09111e-06
-5.19371e-06
-5.11566e-06
-4.88847e-06
-4.55159e-06
-4.14535e-06
-3.7057e-06
-3.26139e-06
-2.83328e-06
-2.43507e-06
-2.07455e-06
-1.755e-06
-1.47648e-06
-1.23696e-06
-1.03319e-06
-8.61333e-07
-7.17373e-07
-5.97432e-07
-4.97913e-07
-4.15587e-07
-3.47622e-07
-2.91577e-07
-2.45377e-07
-2.07277e-07
-1.7582e-07
-1.49798e-07
-1.28216e-07
-1.10258e-07
-9.52562e-08
-8.26678e-08
-7.205e-08
-6.3043e-08
-5.53539e-08
-4.87459e-08
-4.30271e-08
-3.80427e-08
-3.36664e-08
-2.97952e-08
-2.63436e-08
-2.32411e-08
-2.04289e-08
-1.78581e-08
-1.54872e-08
-1.32805e-08
-1.12059e-08
-9.23452e-09
-7.33928e-09
-5.49947e-09
-3.66085e-09
-2.15561e-09
6.90454e-06
6.90024e-06
6.88899e-06
6.8708e-06
6.84524e-06
6.81107e-06
6.76662e-06
6.70978e-06
6.63795e-06
6.54789e-06
6.43566e-06
6.29651e-06
6.12479e-06
5.91394e-06
5.65644e-06
5.34393e-06
4.96745e-06
4.51787e-06
3.98663e-06
3.36675e-06
2.65434e-06
1.85038e-06
9.62777e-07
8.38485e-09
-9.85515e-07
-1.98094e-06
-2.93084e-06
-3.78322e-06
-4.4877e-06
-5.00348e-06
-5.30696e-06
-5.39631e-06
-5.29137e-06
-5.02858e-06
-4.65278e-06
-4.209e-06
-3.73637e-06
-3.26526e-06
-2.81696e-06
-2.40475e-06
-2.03556e-06
-1.71162e-06
-1.43194e-06
-1.19356e-06
-9.9243e-07
-8.24081e-07
-6.84048e-07
-5.68121e-07
-4.72483e-07
-3.93772e-07
-3.29081e-07
-2.7594e-07
-2.32275e-07
-1.96358e-07
-1.6676e-07
-1.42308e-07
-1.22041e-07
-1.05178e-07
-9.10846e-08
-7.92457e-08
-6.92445e-08
-6.07431e-08
-5.34675e-08
-4.71969e-08
-4.17535e-08
-3.69938e-08
-3.28013e-08
-2.90806e-08
-2.57529e-08
-2.27526e-08
-2.00255e-08
-1.75262e-08
-1.52165e-08
-1.30626e-08
-1.10343e-08
-9.10343e-09
-7.24348e-09
-5.43429e-09
-3.6224e-09
-2.13979e-09
6.91692e-06
6.913e-06
6.90275e-06
6.88615e-06
6.86277e-06
6.83143e-06
6.79052e-06
6.73801e-06
6.67135e-06
6.58737e-06
6.48214e-06
6.35089e-06
6.18789e-06
5.98638e-06
5.73849e-06
5.43535e-06
5.06724e-06
4.62402e-06
4.09582e-06
3.47419e-06
2.75359e-06
1.93344e-06
1.02048e-06
3.1208e-08
-1.00622e-06
-2.0513e-06
-3.05273e-06
-3.95282e-06
-4.69494e-06
-5.23288e-06
-5.5399e-06
-5.61436e-06
-5.47952e-06
-5.17743e-06
-4.75908e-06
-4.27462e-06
-3.76661e-06
-3.26709e-06
-2.79763e-06
-2.37097e-06
-1.99301e-06
-1.66482e-06
-1.38426e-06
-1.14736e-06
-9.4922e-07
-7.84733e-07
-6.48949e-07
-5.37323e-07
-4.45818e-07
-3.70935e-07
-3.09699e-07
-2.59614e-07
-2.18609e-07
-1.84977e-07
-1.57323e-07
-1.34511e-07
-1.15616e-07
-9.98952e-08
-8.67471e-08
-7.56882e-08
-6.63283e-08
-5.83523e-08
-5.15063e-08
-4.55862e-08
-4.04285e-08
-3.5902e-08
-3.19002e-08
-2.83358e-08
-2.51364e-08
-2.22422e-08
-1.96034e-08
-1.71785e-08
-1.49324e-08
-1.28338e-08
-1.0854e-08
-8.96583e-09
-7.14308e-09
-5.36595e-09
-3.58175e-09
-2.12265e-09
6.92952e-06
6.926e-06
6.91676e-06
6.90178e-06
6.88062e-06
6.85218e-06
6.81488e-06
6.7668e-06
6.70544e-06
6.62769e-06
6.52966e-06
6.40658e-06
6.25263e-06
6.06084e-06
5.82305e-06
5.52983e-06
5.1707e-06
4.7345e-06
4.21003e-06
3.58722e-06
2.85878e-06
2.02243e-06
1.08356e-06
5.81229e-08
-1.02494e-06
-2.12257e-06
-3.17897e-06
-4.13026e-06
-4.91294e-06
-5.47475e-06
-5.78545e-06
-5.84355e-06
-5.6762e-06
-5.33173e-06
-4.86789e-06
-4.34041e-06
-3.7954e-06
-3.26649e-06
-2.77544e-06
-2.33425e-06
-1.94769e-06
-1.61554e-06
-1.33445e-06
-1.09937e-06
-9.0454e-07
-7.44193e-07
-6.12895e-07
-5.05765e-07
-4.18551e-07
-3.47624e-07
-2.89943e-07
-2.42993e-07
-2.04709e-07
-1.73413e-07
-1.47742e-07
-1.26599e-07
-1.09101e-07
-9.45402e-08
-8.23527e-08
-7.20858e-08
-6.33768e-08
-5.59341e-08
-4.95237e-08
-4.3959e-08
-3.9091e-08
-3.48009e-08
-3.09924e-08
-2.75864e-08
-2.45172e-08
-2.17304e-08
-1.91809e-08
-1.68314e-08
-1.46499e-08
-1.26077e-08
-1.06774e-08
-8.83281e-09
-7.04798e-09
-5.30328e-09
-3.54647e-09
-2.10968e-09
6.94206e-06
6.93893e-06
6.9307e-06
6.91733e-06
6.89839e-06
6.87281e-06
6.83913e-06
6.79546e-06
6.7394e-06
6.6679e-06
6.57711e-06
6.46225e-06
6.31745e-06
6.13556e-06
5.90808e-06
5.62511e-06
5.27541e-06
4.84676e-06
4.32663e-06
3.7033e-06
2.96765e-06
2.11555e-06
1.15088e-06
8.88876e-08
-1.04085e-06
-2.19276e-06
-3.3064e-06
-4.31138e-06
-5.13678e-06
-5.72377e-06
-6.0382e-06
-6.07878e-06
-5.8769e-06
-5.48778e-06
-4.97647e-06
-4.40458e-06
-3.82181e-06
-3.26329e-06
-2.75076e-06
-2.29537e-06
-1.90062e-06
-1.56493e-06
-1.28369e-06
-1.05074e-06
-8.59477e-07
-7.03455e-07
-5.76773e-07
-4.74228e-07
-3.91358e-07
-3.24417e-07
-2.70305e-07
-2.26491e-07
-1.90925e-07
-1.61954e-07
-1.38254e-07
-1.18769e-07
-1.02655e-07
-8.92439e-08
-7.80071e-08
-6.85235e-08
-6.04578e-08
-5.35417e-08
-4.75613e-08
-4.23471e-08
-3.77649e-08
-3.3708e-08
-3.00901e-08
-2.68403e-08
-2.38994e-08
-2.12185e-08
-1.87572e-08
-1.64822e-08
-1.43648e-08
-1.23786e-08
-1.04979e-08
-8.69708e-09
-6.95037e-09
-5.2381e-09
-3.50846e-09
-2.09408e-09
6.95424e-06
6.95148e-06
6.94424e-06
6.93243e-06
6.91564e-06
6.89285e-06
6.86268e-06
6.8233e-06
6.77241e-06
6.70702e-06
6.62332e-06
6.51654e-06
6.38075e-06
6.20867e-06
5.9915e-06
5.71884e-06
5.37875e-06
4.95799e-06
4.44271e-06
3.81955e-06
3.0775e-06
2.21053e-06
1.22088e-06
1.22913e-07
-1.05332e-06
-2.25986e-06
-3.4316e-06
-4.49146e-06
-5.36077e-06
-5.97366e-06
-6.29182e-06
-6.31412e-06
-6.07651e-06
-5.64155e-06
-5.08198e-06
-4.46542e-06
-3.84513e-06
-3.25755e-06
-2.72424e-06
-2.25535e-06
-1.85303e-06
-1.51432e-06
-1.2333e-06
-1.00274e-06
-8.15189e-07
-6.63562e-07
-5.41506e-07
-4.43513e-07
-3.64929e-07
-3.019e-07
-2.51279e-07
-2.10524e-07
-1.77601e-07
-1.50888e-07
-1.29101e-07
-1.1122e-07
-9.64455e-08
-8.41463e-08
-7.38279e-08
-6.51008e-08
-5.76559e-08
-5.12478e-08
-4.56821e-08
-4.08058e-08
-3.64989e-08
-3.26666e-08
-2.92323e-08
-2.61328e-08
-2.33152e-08
-2.07359e-08
-1.83592e-08
-1.61557e-08
-1.40998e-08
-1.21675e-08
-1.03346e-08
-8.57602e-09
-6.86595e-09
-5.18455e-09
-3.48005e-09
-2.08513e-09
6.96578e-06
6.96338e-06
6.95706e-06
6.94672e-06
6.93196e-06
6.91182e-06
6.88496e-06
6.84966e-06
6.80367e-06
6.74408e-06
6.66713e-06
6.56808e-06
6.44094e-06
6.2783e-06
6.07111e-06
5.80854e-06
5.47796e-06
5.06519e-06
4.5551e-06
3.93274e-06
3.18527e-06
2.3047e-06
1.29157e-06
1.59229e-07
-1.06198e-06
-2.32191e-06
-3.55095e-06
-4.66532e-06
-5.57848e-06
-6.21732e-06
-6.53914e-06
-6.54295e-06
-6.26946e-06
-5.78881e-06
-5.18158e-06
-4.52139e-06
-3.86489e-06
-3.24962e-06
-2.69678e-06
-2.21544e-06
-1.80636e-06
-1.46517e-06
-1.18471e-06
-9.56712e-07
-7.729e-07
-6.25602e-07
-5.08044e-07
-4.14438e-07
-3.39961e-07
-2.80664e-07
-2.3336e-07
-1.95503e-07
-1.65078e-07
-1.40496e-07
-1.20509e-07
-1.04138e-07
-9.06205e-08
-7.93639e-08
-6.99065e-08
-6.18879e-08
-5.50242e-08
-4.90914e-08
-4.39133e-08
-3.93528e-08
-3.53032e-08
-3.1681e-08
-2.84184e-08
-2.54595e-08
-2.27573e-08
-2.02731e-08
-1.79757e-08
-1.58393e-08
-1.38414e-08
-1.19604e-08
-1.01731e-08
-8.455e-09
-6.78014e-09
-5.12831e-09
-3.44786e-09
-2.07219e-09
6.97641e-06
6.97433e-06
6.96886e-06
6.95987e-06
6.94697e-06
6.92924e-06
6.90543e-06
6.87387e-06
6.83239e-06
6.77814e-06
6.70743e-06
6.61553e-06
6.49643e-06
6.3426e-06
6.14478e-06
5.89173e-06
5.57025e-06
5.16527e-06
4.66048e-06
4.03946e-06
3.2876e-06
2.39502e-06
1.36057e-06
1.96484e-07
-1.06678e-06
-2.37714e-06
-3.66076e-06
-4.82746e-06
-5.78297e-06
-6.44694e-06
-6.77228e-06
-6.7581e-06
-6.44984e-06
-5.92521e-06
-5.27252e-06
-4.57117e-06
-3.88089e-06
-3.24011e-06
-2.66954e-06
-2.17708e-06
-1.76216e-06
-1.41906e-06
-1.13942e-06
-9.1402e-07
-7.33833e-07
-5.90647e-07
-4.77312e-07
-3.87796e-07
-3.17127e-07
-2.61275e-07
-2.17023e-07
-1.81826e-07
-1.5369e-07
-1.31056e-07
-1.12712e-07
-9.77179e-08
-8.53468e-08
-7.50396e-08
-6.63657e-08
-5.89915e-08
-5.26561e-08
-4.7155e-08
-4.23287e-08
-3.80545e-08
-3.42381e-08
-3.0806e-08
-2.76987e-08
-2.48667e-08
-2.22683e-08
-1.98696e-08
-1.76431e-08
-1.55667e-08
-1.36208e-08
-1.17857e-08
-1.00394e-08
-8.35756e-09
-6.71417e-09
-5.08847e-09
-3.42852e-09
-2.06779e-09
6.98588e-06
6.98409e-06
6.97936e-06
6.97157e-06
6.96031e-06
6.94472e-06
6.9236e-06
6.89535e-06
6.85787e-06
6.80836e-06
6.74319e-06
6.65765e-06
6.54573e-06
6.39981e-06
6.21043e-06
5.96603e-06
5.65289e-06
5.25517e-06
4.75554e-06
4.13621e-06
3.38098e-06
2.47825e-06
1.42521e-06
2.33001e-07
-1.06797e-06
-2.42399e-06
-3.75746e-06
-4.9723e-06
-5.967e-06
-6.65436e-06
-6.983e-06
-6.95211e-06
-6.61164e-06
-6.0465e-06
-5.35229e-06
-4.61372e-06
-3.89323e-06
-3.22989e-06
-2.64383e-06
-2.14185e-06
-1.72209e-06
-1.37759e-06
-1.09894e-06
-8.76027e-07
-6.9919e-07
-5.5974e-07
-4.50206e-07
-3.64345e-07
-2.9706e-07
-2.4426e-07
-2.02702e-07
-1.69848e-07
-1.43722e-07
-1.22797e-07
-1.05893e-07
-9.21037e-08
-8.07339e-08
-7.12555e-08
-6.32651e-08
-5.64528e-08
-5.05778e-08
-4.54527e-08
-4.09327e-08
-3.69078e-08
-3.32945e-08
-3.00282e-08
-2.70564e-08
-2.43353e-08
-2.18278e-08
-1.95037e-08
-1.73395e-08
-1.53159e-08
-1.34161e-08
-1.16218e-08
-9.91225e-09
-8.26324e-09
-6.64833e-09
-5.04628e-09
-3.40499e-09
-2.05876e-09
6.99397e-06
6.99243e-06
6.98833e-06
6.98155e-06
6.97167e-06
6.95788e-06
6.93902e-06
6.91356e-06
6.87945e-06
6.83394e-06
6.77346e-06
6.69332e-06
6.5875e-06
6.44831e-06
6.26616e-06
6.02922e-06
5.72332e-06
5.33202e-06
4.83708e-06
4.21959e-06
3.46197e-06
2.55109e-06
1.4827e-06
2.66888e-07
-1.06609e-06
-2.46123e-06
-3.83776e-06
-5.09447e-06
-6.12347e-06
-6.83142e-06
-7.16306e-06
-7.1176e-06
-6.74901e-06
-6.14867e-06
-5.41866e-06
-4.64826e-06
-3.90219e-06
-3.21995e-06
-2.62108e-06
-2.11134e-06
-1.68776e-06
-1.34231e-06
-1.06467e-06
-8.43993e-07
-6.70073e-07
-5.33832e-07
-4.27534e-07
-3.44768e-07
-2.80338e-07
-2.30102e-07
-1.90804e-07
-1.59911e-07
-1.35465e-07
-1.15966e-07
-1.00262e-07
-8.74746e-08
-7.69375e-08
-6.81476e-08
-6.07245e-08
-5.43782e-08
-4.88847e-08
-4.40707e-08
-3.98038e-08
-3.59845e-08
-3.25383e-08
-2.94082e-08
-2.65475e-08
-2.39169e-08
-2.14832e-08
-1.92196e-08
-1.71055e-08
-1.51244e-08
-1.32614e-08
-1.15e-08
-9.82005e-09
-8.19741e-09
-6.60528e-09
-5.02187e-09
-3.39466e-09
-2.05808e-09
7.00052e-06
6.99916e-06
6.99556e-06
6.98956e-06
6.98077e-06
6.96839e-06
6.95132e-06
6.92806e-06
6.89659e-06
6.85424e-06
6.79745e-06
6.72157e-06
6.62057e-06
6.48674e-06
6.31034e-06
6.07936e-06
5.7793e-06
5.39324e-06
4.90224e-06
4.28652e-06
3.52737e-06
2.61046e-06
1.53034e-06
2.96204e-07
-1.06189e-06
-2.48798e-06
-3.89882e-06
-5.18914e-06
-6.24585e-06
-6.97056e-06
-7.30481e-06
-7.24774e-06
-6.85665e-06
-6.22822e-06
-5.46977e-06
-4.67429e-06
-3.90823e-06
-3.21135e-06
-2.60265e-06
-2.08706e-06
-1.66067e-06
-1.31463e-06
-1.03789e-06
-8.19042e-07
-6.47453e-07
-5.13748e-07
-4.0999e-07
-3.29642e-07
-2.67434e-07
-2.1919e-07
-1.81641e-07
-1.52262e-07
-1.29113e-07
-1.10713e-07
-9.59318e-08
-8.39147e-08
-7.40168e-08
-6.5755e-08
-5.87668e-08
-5.27776e-08
-4.75763e-08
-4.30005e-08
-3.89273e-08
-3.52653e-08
-3.19472e-08
-2.89215e-08
-2.6146e-08
-2.3585e-08
-2.12081e-08
-1.89912e-08
-1.69158e-08
-1.49677e-08
-1.31336e-08
-1.13982e-08
-9.74167e-09
-8.14008e-09
-6.5662e-09
-4.99776e-09
-3.38196e-09
-2.05399e-09
7.00537e-06
7.00414e-06
7.00089e-06
6.99545e-06
6.98741e-06
6.97603e-06
6.96021e-06
6.93848e-06
6.90888e-06
6.86874e-06
6.81454e-06
6.74165e-06
6.64404e-06
6.51397e-06
6.34164e-06
6.11489e-06
5.81901e-06
5.43674e-06
4.94868e-06
4.33442e-06
3.57449e-06
2.6537e-06
1.56575e-06
3.19172e-07
-1.05616e-06
-2.50368e-06
-3.93845e-06
-5.25235e-06
-6.32867e-06
-7.0654e-06
-7.40174e-06
-7.33678e-06
-6.93013e-06
-6.28226e-06
-5.50421e-06
-4.69153e-06
-3.91185e-06
-3.20505e-06
-2.58975e-06
-2.07026e-06
-1.64206e-06
-1.2957e-06
-1.01963e-06
-8.02076e-07
-6.32107e-07
-5.00151e-07
-3.98137e-07
-3.19441e-07
-2.58749e-07
-2.11858e-07
-1.75498e-07
-1.47145e-07
-1.24874e-07
-1.07215e-07
-9.30569e-08
-8.15587e-08
-7.20904e-08
-6.4183e-08
-5.74862e-08
-5.17357e-08
-4.67293e-08
-4.2312e-08
-3.83671e-08
-3.4809e-08
-3.1575e-08
-2.86174e-08
-2.58973e-08
-2.33812e-08
-2.10408e-08
-1.88535e-08
-1.68026e-08
-1.48751e-08
-1.30591e-08
-1.13399e-08
-9.69823e-09
-8.1099e-09
-6.54743e-09
-4.98813e-09
-3.37886e-09
-2.05525e-09
7.00842e-06
7.00727e-06
7.00421e-06
6.99907e-06
6.99146e-06
6.98062e-06
6.96548e-06
6.94459e-06
6.916e-06
6.87706e-06
6.82428e-06
6.75301e-06
6.65725e-06
6.52923e-06
6.35912e-06
6.13471e-06
5.84115e-06
5.46102e-06
4.9747e-06
4.36143e-06
3.60136e-06
2.67885e-06
1.58713e-06
3.344e-07
-1.04961e-06
-2.50806e-06
-3.95516e-06
-5.28136e-06
-6.36804e-06
-7.11132e-06
-7.44913e-06
-7.38051e-06
-6.96626e-06
-6.30878e-06
-5.52101e-06
-4.69983e-06
-3.91343e-06
-3.20177e-06
-2.58324e-06
-2.06187e-06
-1.6328e-06
-1.28632e-06
-1.01061e-06
-7.93719e-07
-6.24567e-07
-4.93487e-07
-3.92341e-07
-3.14466e-07
-2.54524e-07
-2.08302e-07
-1.72526e-07
-1.44678e-07
-1.22836e-07
-1.0554e-07
-9.16844e-08
-8.04377e-08
-7.11772e-08
-6.34404e-08
-5.68835e-08
-5.12473e-08
-4.63339e-08
-4.19918e-08
-3.81077e-08
-3.45983e-08
-3.14036e-08
-2.84777e-08
-2.57831e-08
-2.32878e-08
-2.0964e-08
-1.87902e-08
-1.67504e-08
-1.48324e-08
-1.30248e-08
-1.13132e-08
-9.6786e-09
-8.09666e-09
-6.53964e-09
-4.9846e-09
-3.3782e-09
-2.05666e-09
7.00963e-06
7.00849e-06
7.00546e-06
7.00036e-06
6.99281e-06
6.98206e-06
6.96702e-06
6.94626e-06
6.91781e-06
6.87903e-06
6.82644e-06
6.75539e-06
6.65987e-06
6.53212e-06
6.36231e-06
6.13822e-06
5.84503e-06
5.46529e-06
4.97938e-06
4.36654e-06
3.60691e-06
2.68482e-06
1.59348e-06
3.41066e-07
-1.04273e-06
-2.5011e-06
-3.9483e-06
-5.2748e-06
-6.36197e-06
-7.10592e-06
-7.44453e-06
-7.37677e-06
-6.96339e-06
-6.30673e-06
-5.5197e-06
-4.69912e-06
-3.91319e-06
-3.20187e-06
-2.58357e-06
-2.06235e-06
-1.63336e-06
-1.28691e-06
-1.01121e-06
-7.94293e-07
-6.25109e-07
-4.9399e-07
-3.92803e-07
-3.14887e-07
-2.54903e-07
-2.08643e-07
-1.72831e-07
-1.4495e-07
-1.23077e-07
-1.05753e-07
-9.18727e-08
-8.06035e-08
-7.13227e-08
-6.3568e-08
-5.69951e-08
-5.13449e-08
-4.64192e-08
-4.20663e-08
-3.81725e-08
-3.46545e-08
-3.1452e-08
-2.85192e-08
-2.58186e-08
-2.33179e-08
-2.09895e-08
-1.88116e-08
-1.67682e-08
-1.48472e-08
-1.3037e-08
-1.13233e-08
-9.68691e-09
-8.10343e-09
-6.54498e-09
-4.98853e-09
-3.38066e-09
-2.05841e-09
7.00897e-06
7.00778e-06
7.00462e-06
6.99932e-06
6.99148e-06
6.98034e-06
6.96482e-06
6.94346e-06
6.91428e-06
6.87463e-06
6.821e-06
6.74875e-06
6.65186e-06
6.52259e-06
6.35116e-06
6.1254e-06
5.8306e-06
5.44948e-06
4.96266e-06
4.34967e-06
3.59103e-06
2.67149e-06
1.58467e-06
3.39035e-07
-1.03566e-06
-2.48297e-06
-3.91803e-06
-5.23282e-06
-6.31061e-06
-7.04932e-06
-7.38802e-06
-7.32561e-06
-6.92154e-06
-6.27611e-06
-5.50023e-06
-4.68936e-06
-3.91109e-06
-3.20531e-06
-2.5907e-06
-2.07165e-06
-1.64369e-06
-1.29744e-06
-1.02138e-06
-8.03771e-07
-6.33711e-07
-5.01643e-07
-3.99506e-07
-3.20688e-07
-2.59875e-07
-2.12871e-07
-1.76403e-07
-1.47953e-07
-1.25591e-07
-1.0785e-07
-9.36177e-08
-8.20527e-08
-7.25246e-08
-6.45639e-08
-5.782e-08
-5.20283e-08
-4.69857e-08
-4.25366e-08
-3.85634e-08
-3.49799e-08
-3.17232e-08
-2.87454e-08
-2.60075e-08
-2.34759e-08
-2.11219e-08
-1.89227e-08
-1.68614e-08
-1.4925e-08
-1.31015e-08
-1.1376e-08
-9.72911e-09
-8.13624e-09
-6.56952e-09
-5.00594e-09
-3.39203e-09
-2.06522e-09
7.0065e-06
7.0052e-06
7.00175e-06
6.99599e-06
6.98752e-06
6.97555e-06
6.95898e-06
6.93632e-06
6.90555e-06
6.86402e-06
6.80816e-06
6.73334e-06
6.63353e-06
6.50102e-06
6.3261e-06
6.09675e-06
5.79846e-06
5.4143e-06
4.92532e-06
4.31168e-06
3.55464e-06
2.63976e-06
1.56148e-06
3.28863e-07
-1.02822e-06
-2.45398e-06
-3.86533e-06
-5.15709e-06
-6.2162e-06
-6.94414e-06
-7.28222e-06
-7.22932e-06
-6.84242e-06
-6.21796e-06
-5.46306e-06
-4.67055e-06
-3.90682e-06
-3.21163e-06
-2.60409e-06
-2.08924e-06
-1.66327e-06
-1.31743e-06
-1.04072e-06
-8.21798e-07
-6.5007e-07
-5.16189e-07
-4.12238e-07
-3.31692e-07
-2.69291e-07
-2.2086e-07
-1.83138e-07
-1.53597e-07
-1.303e-07
-1.11765e-07
-9.68612e-08
-8.47338e-08
-7.47367e-08
-6.63865e-08
-5.93202e-08
-5.32623e-08
-4.80007e-08
-4.33718e-08
-3.92513e-08
-3.55469e-08
-3.21909e-08
-2.91313e-08
-2.63261e-08
-2.3739e-08
-2.13394e-08
-1.91026e-08
-1.70098e-08
-1.50468e-08
-1.32e-08
-1.1454e-08
-9.78876e-09
-8.17957e-09
-6.59863e-09
-5.02318e-09
-3.39996e-09
-2.06747e-09
7.00229e-06
7.00083e-06
6.99694e-06
6.99049e-06
6.98105e-06
6.96783e-06
6.94967e-06
6.92504e-06
6.8919e-06
6.84753e-06
6.78833e-06
6.70965e-06
6.60547e-06
6.46813e-06
6.28801e-06
6.0533e-06
5.74983e-06
5.36114e-06
4.86895e-06
4.25431e-06
3.49954e-06
2.59141e-06
1.5255e-06
3.11707e-07
-1.01994e-06
-2.41468e-06
-3.79193e-06
-5.05063e-06
-6.08288e-06
-6.7952e-06
-7.13202e-06
-7.09218e-06
-6.72927e-06
-6.13432e-06
-5.40913e-06
-4.64278e-06
-3.89991e-06
-3.22002e-06
-2.62279e-06
-2.11412e-06
-1.69116e-06
-1.34602e-06
-1.06845e-06
-8.47704e-07
-6.73616e-07
-5.37152e-07
-4.30602e-07
-3.47574e-07
-2.82885e-07
-2.324e-07
-1.92866e-07
-1.61753e-07
-1.37105e-07
-1.17421e-07
-1.01549e-07
-8.86096e-08
-7.7936e-08
-6.90242e-08
-6.14932e-08
-5.50519e-08
-4.94749e-08
-4.45873e-08
-4.02549e-08
-3.63769e-08
-3.28783e-08
-2.97014e-08
-2.67995e-08
-2.41329e-08
-2.16677e-08
-1.93766e-08
-1.72384e-08
-1.52365e-08
-1.3356e-08
-1.158e-08
-9.88775e-09
-8.25453e-09
-6.65262e-09
-5.05957e-09
-3.42212e-09
-2.07892e-09
6.99648e-06
6.99479e-06
6.99033e-06
6.98297e-06
6.97227e-06
6.9574e-06
6.93716e-06
6.90997e-06
6.87372e-06
6.82564e-06
6.76211e-06
6.67842e-06
6.56857e-06
6.42497e-06
6.23815e-06
5.99656e-06
5.68645e-06
5.292e-06
4.79579e-06
4.17999e-06
3.42829e-06
2.52892e-06
1.47891e-06
2.89148e-07
-1.01024e-06
-2.36583e-06
-3.70025e-06
-4.91758e-06
-5.9163e-06
-6.60903e-06
-6.94403e-06
-6.92005e-06
-6.58656e-06
-6.02807e-06
-5.33983e-06
-4.60631e-06
-3.88983e-06
-3.22949e-06
-2.64556e-06
-2.14498e-06
-1.72607e-06
-1.38202e-06
-1.10352e-06
-8.80565e-07
-7.03554e-07
-5.63853e-07
-4.54025e-07
-3.67852e-07
-3.00254e-07
-2.47149e-07
-2.05301e-07
-1.72174e-07
-1.45797e-07
-1.2464e-07
-1.07526e-07
-9.35448e-08
-8.20028e-08
-7.237e-08
-6.42426e-08
-5.73095e-08
-5.13282e-08
-4.61091e-08
-4.15056e-08
-3.74058e-08
-3.37255e-08
-3.03996e-08
-2.73752e-08
-2.4608e-08
-2.20602e-08
-1.97009e-08
-1.75059e-08
-1.54557e-08
-1.35333e-08
-1.17202e-08
-9.99485e-09
-8.33225e-09
-6.70491e-09
-5.0908e-09
-3.43692e-09
-2.08302e-09
6.98923e-06
6.98727e-06
6.98212e-06
6.97365e-06
6.96143e-06
6.94457e-06
6.92182e-06
6.89153e-06
6.85154e-06
6.79901e-06
6.73025e-06
6.64056e-06
6.52394e-06
6.37288e-06
6.17811e-06
5.9284e-06
5.61051e-06
5.20938e-06
4.70862e-06
4.09172e-06
3.34396e-06
2.45528e-06
1.4243e-06
2.62985e-07
-9.98527e-07
-2.30847e-06
-3.59327e-06
-4.76292e-06
-5.72312e-06
-6.39332e-06
-6.72601e-06
-6.71983e-06
-6.41966e-06
-5.90275e-06
-5.25704e-06
-4.56163e-06
-3.87612e-06
-3.23895e-06
-2.67098e-06
-2.18029e-06
-1.76648e-06
-1.42399e-06
-1.14462e-06
-9.1923e-07
-7.38891e-07
-5.95448e-07
-4.81796e-07
-3.91935e-07
-3.20911e-07
-2.6471e-07
-2.20121e-07
-1.84607e-07
-1.56174e-07
-1.33267e-07
-1.14673e-07
-9.94516e-08
-8.68749e-08
-7.63831e-08
-6.75449e-08
-6.00254e-08
-5.3562e-08
-4.79476e-08
-4.30205e-08
-3.8656e-08
-3.47589e-08
-3.12549e-08
-2.80842e-08
-2.51966e-08
-2.25496e-08
-2.01083e-08
-1.78447e-08
-1.57361e-08
-1.37629e-08
-1.19047e-08
-1.01392e-08
-8.44094e-09
-6.78262e-09
-5.14262e-09
-3.46787e-09
-2.09804e-09
6.98073e-06
6.97848e-06
6.97253e-06
6.96279e-06
6.94882e-06
6.92968e-06
6.90406e-06
6.87023e-06
6.82597e-06
6.76836e-06
6.69368e-06
6.59718e-06
6.47291e-06
6.31345e-06
6.10975e-06
5.85098e-06
5.5245e-06
5.11609e-06
4.61055e-06
3.99283e-06
3.24993e-06
2.37368e-06
1.36436e-06
2.35019e-07
-9.84346e-07
-2.24392e-06
-3.47437e-06
-4.59209e-06
-5.5105e-06
-6.15626e-06
-6.48624e-06
-6.49893e-06
-6.23444e-06
-5.76241e-06
-5.163e-06
-4.50953e-06
-3.85848e-06
-3.24741e-06
-2.69766e-06
-2.21844e-06
-1.81076e-06
-1.47039e-06
-1.19033e-06
-9.62432e-07
-7.78515e-07
-6.30979e-07
-5.13101e-07
-4.19132e-07
-3.44274e-07
-2.84594e-07
-2.36917e-07
-1.98704e-07
-1.67945e-07
-1.43053e-07
-1.2278e-07
-1.06148e-07
-9.23949e-08
-8.09253e-08
-7.12777e-08
-6.30904e-08
-5.60777e-08
-5.0013e-08
-4.47174e-08
-4.00517e-08
-3.5908e-08
-3.2202e-08
-2.88655e-08
-2.58416e-08
-2.30826e-08
-2.05487e-08
-1.82078e-08
-1.60337e-08
-1.40037e-08
-1.20956e-08
-1.02857e-08
-8.54816e-09
-6.85598e-09
-5.18788e-09
-3.49088e-09
-2.10553e-09
6.97124e-06
6.96864e-06
6.96182e-06
6.95068e-06
6.93479e-06
6.91314e-06
6.88436e-06
6.84665e-06
6.79771e-06
6.73455e-06
6.6534e-06
6.54949e-06
6.41691e-06
6.24838e-06
6.0351e-06
5.76667e-06
5.43112e-06
5.01516e-06
4.50486e-06
3.88675e-06
3.14966e-06
2.28733e-06
1.30172e-06
2.06891e-07
-9.67471e-07
-2.17376e-06
-3.34714e-06
-4.41069e-06
-5.2857e-06
-5.90606e-06
-6.23301e-06
-6.26485e-06
-6.03696e-06
-5.61134e-06
-5.06029e-06
-4.45111e-06
-3.83688e-06
-3.25404e-06
-2.72427e-06
-2.25789e-06
-1.85727e-06
-1.5196e-06
-1.23914e-06
-1.0088e-06
-8.21221e-07
-6.69398e-07
-5.4704e-07
-4.48683e-07
-3.69704e-07
-3.06271e-07
-2.5525e-07
-2.14109e-07
-1.8082e-07
-1.53765e-07
-1.31662e-07
-1.13491e-07
-9.84522e-08
-8.5914e-08
-7.53815e-08
-6.64639e-08
-5.88503e-08
-5.22927e-08
-4.65937e-08
-4.15982e-08
-3.71846e-08
-3.32574e-08
-2.97391e-08
-2.65659e-08
-2.36837e-08
-2.10479e-08
-1.86218e-08
-1.63754e-08
-1.42827e-08
-1.23194e-08
-1.04605e-08
-8.67972e-09
-6.95012e-09
-5.25069e-09
-3.52816e-09
-2.1229e-09
6.96099e-06
6.95804e-06
6.95028e-06
6.93765e-06
6.91971e-06
6.8954e-06
6.86326e-06
6.82143e-06
6.76752e-06
6.69848e-06
6.6105e-06
6.49881e-06
6.35752e-06
6.17951e-06
5.95629e-06
5.67792e-06
5.33313e-06
4.90965e-06
4.39485e-06
3.77689e-06
3.04648e-06
2.19924e-06
1.23876e-06
1.79958e-07
-9.47945e-07
-2.09974e-06
-3.21522e-06
-4.22418e-06
-5.05564e-06
-5.6505e-06
-5.97417e-06
-6.02479e-06
-5.83316e-06
-5.45393e-06
-4.9517e-06
-4.38773e-06
-3.81155e-06
-3.25827e-06
-2.74972e-06
-2.29722e-06
-1.90447e-06
-1.57008e-06
-1.28959e-06
-1.05699e-06
-8.65791e-07
-7.09635e-07
-5.82687e-07
-4.79794e-07
-3.96529e-07
-3.29173e-07
-2.74643e-07
-2.30421e-07
-1.94463e-07
-1.65124e-07
-1.41082e-07
-1.2128e-07
-1.04877e-07
-9.12039e-08
-7.9731e-08
-7.00367e-08
-6.17837e-08
-5.47014e-08
-4.85728e-08
-4.3226e-08
-3.85252e-08
-3.43627e-08
-3.06514e-08
-2.73194e-08
-2.43065e-08
-2.15626e-08
-1.90462e-08