/*--------------------------------*- C++ -*----------------------------------*\
| =========                 |                                                 |
| \\      /  F ield         | OpenFOAM: The Open Source CFD Toolbox           |
|  \\    /   O peration     | Version:  2512                                  |
|   \\  /    A nd           | Website:  www.openfoam.com                      |
|    \\/     M anipulation  |                                                 |
\*---------------------------------------------------------------------------*/
FoamFile
{
    version     2.0;
    format      ascii;
    arch        "LSB;label=32;scalar=64";
    class       volScalarField;
    location    "133";
    object      p;
}
// * * * * * * * * * * * * * * * * * * * * * * * * * * * * * * * * * * * * * //

dimensions      [0 2 -2 0 0 0 0];

internalField   nonuniform List<scalar> 
220594
(
3.43624e-05
3.4314e-05
3.41906e-05
3.39924e-05
3.37166e-05
3.33521e-05
3.28837e-05
3.22929e-05
3.15579e-05
3.06527e-05
2.95471e-05
2.82068e-05
2.65937e-05
2.46672e-05
2.23853e-05
1.97067e-05
1.65944e-05
1.30198e-05
8.96774e-06
4.44311e-06
-5.22812e-07
-5.86588e-06
-1.1484e-05
-1.72349e-05
-2.2938e-05
-2.8382e-05
-3.33395e-05
-3.75866e-05
-4.09273e-05
-4.32164e-05
-4.43797e-05
-4.44228e-05
-4.34298e-05
-4.15491e-05
-3.89715e-05
-3.59046e-05
-3.25503e-05
-2.90876e-05
-2.56627e-05
-2.23863e-05
-1.93346e-05
-1.65539e-05
-1.40659e-05
-1.18738e-05
-9.96734e-06
-8.32746e-06
-6.93014e-06
-5.74903e-06
-4.75746e-06
-3.92982e-06
-3.24233e-06
-2.67354e-06
-2.20445e-06
-1.81856e-06
-1.50166e-06
-1.2417e-06
-1.02856e-06
-8.5379e-07
-7.10404e-07
-5.92654e-07
-4.95827e-07
-4.16078e-07
-3.5028e-07
-2.959e-07
-2.50888e-07
-2.1358e-07
-1.82609e-07
-1.56838e-07
-1.35305e-07
-1.17189e-07
-1.01787e-07
-8.84949e-08
-7.68004e-08
-6.62678e-08
-5.65271e-08
-4.72646e-08
-3.82159e-08
-2.92008e-08
-1.99409e-08
-1.2568e-08
3.43764e-05
3.43285e-05
3.42062e-05
3.40099e-05
3.37366e-05
3.33754e-05
3.29111e-05
3.23252e-05
3.15961e-05
3.06976e-05
2.95996e-05
2.82676e-05
2.66635e-05
2.47462e-05
2.24732e-05
1.98026e-05
1.66963e-05
1.31246e-05
9.07098e-06
4.53886e-06
-4.41867e-07
-5.8081e-06
-1.14582e-05
-1.72492e-05
-2.29988e-05
-2.84926e-05
-3.34987e-05
-3.77881e-05
-4.11597e-05
-4.34645e-05
-4.46261e-05
-4.46508e-05
-4.36257e-05
-4.17039e-05
-3.90814e-05
-3.59708e-05
-3.25774e-05
-2.90823e-05
-2.56327e-05
-2.2339e-05
-1.92766e-05
-1.64906e-05
-1.40015e-05
-1.18113e-05
-9.90875e-06
-8.27399e-06
-6.88235e-06
-5.70705e-06
-4.72111e-06
-3.89871e-06
-3.21597e-06
-2.6514e-06
-2.186e-06
-1.80328e-06
-1.48908e-06
-1.2314e-06
-1.02015e-06
-8.46963e-07
-7.04884e-07
-5.88212e-07
-4.9227e-07
-4.13242e-07
-3.48028e-07
-2.94118e-07
-2.49483e-07
-2.12474e-07
-1.8174e-07
-1.56154e-07
-1.34764e-07
-1.16756e-07
-1.01432e-07
-8.81965e-08
-7.65423e-08
-6.60407e-08
-5.63282e-08
-4.70969e-08
-3.80867e-08
-2.91153e-08
-1.99053e-08
-1.24783e-08
3.4404e-05
3.43569e-05
3.4237e-05
3.40444e-05
3.37762e-05
3.34214e-05
3.29651e-05
3.2389e-05
3.16713e-05
3.07861e-05
2.97032e-05
2.83878e-05
2.68015e-05
2.49025e-05
2.26473e-05
1.99925e-05
1.68984e-05
1.33327e-05
9.27625e-06
4.72956e-06
-2.80235e-07
-5.69218e-06
-1.14055e-05
-1.72762e-05
-2.31183e-05
-2.87113e-05
-3.38144e-05
-3.81884e-05
-4.1622e-05
-4.39581e-05
-4.51165e-05
-4.51045e-05
-4.40153e-05
-4.20114e-05
-3.92994e-05
-3.61015e-05
-3.26304e-05
-2.90712e-05
-2.55727e-05
-2.22449e-05
-1.91613e-05
-1.63649e-05
-1.38737e-05
-1.16874e-05
-9.79261e-06
-8.16802e-06
-6.78768e-06
-5.6239e-06
-4.6491e-06
-3.83708e-06
-3.16376e-06
-2.60754e-06
-2.14943e-06
-1.77298e-06
-1.46411e-06
-1.21093e-06
-1.00344e-06
-8.33377e-07
-6.93881e-07
-5.79336e-07
-4.85138e-07
-4.07531e-07
-3.43468e-07
-2.90486e-07
-2.46594e-07
-2.10178e-07
-1.79915e-07
-1.54698e-07
-1.33593e-07
-1.158e-07
-1.00632e-07
-8.7506e-08
-7.59282e-08
-6.54821e-08
-5.58167e-08
-4.66355e-08
-3.76867e-08
-2.87911e-08
-1.9668e-08
-1.22799e-08
3.44445e-05
3.43988e-05
3.42823e-05
3.40952e-05
3.38343e-05
3.34891e-05
3.30446e-05
3.24829e-05
3.17822e-05
3.09166e-05
2.98559e-05
2.85652e-05
2.70053e-05
2.51335e-05
2.29048e-05
2.02738e-05
1.7198e-05
1.36417e-05
9.58163e-06
5.01398e-06
-3.83303e-08
-5.5176e-06
-1.13245e-05
-1.73135e-05
-2.32937e-05
-2.90349e-05
-3.42833e-05
-3.87843e-05
-4.23109e-05
-4.46941e-05
-4.58474e-05
-4.57801e-05
-4.45943e-05
-4.2467e-05
-3.96209e-05
-3.62928e-05
-3.2706e-05
-2.90519e-05
-2.54813e-05
-2.21033e-05
-1.89891e-05
-1.61778e-05
-1.36839e-05
-1.15036e-05
-9.62065e-06
-8.0113e-06
-6.6478e-06
-5.50115e-06
-4.54288e-06
-3.74623e-06
-3.08682e-06
-2.54294e-06
-2.09559e-06
-1.7284e-06
-1.4274e-06
-1.18084e-06
-9.78899e-07
-8.13436e-07
-6.77751e-07
-5.66346e-07
-4.74725e-07
-3.99223e-07
-3.36869e-07
-2.85268e-07
-2.42489e-07
-2.06968e-07
-1.77419e-07
-1.5277e-07
-1.32106e-07
-1.14647e-07
-9.9726e-08
-8.67761e-08
-7.53216e-08
-6.49647e-08
-5.53724e-08
-4.62642e-08
-3.74012e-08
-2.86094e-08
-1.95999e-08
-1.2284e-08
3.4497e-05
3.4453e-05
3.4341e-05
3.41609e-05
3.39096e-05
3.35768e-05
3.31477e-05
3.26046e-05
3.1926e-05
3.10861e-05
3.00545e-05
2.87959e-05
2.72706e-05
2.54346e-05
2.32409e-05
2.06417e-05
1.75905e-05
1.40473e-05
9.98355e-06
5.38956e-06
2.82643e-07
-5.28399e-06
-1.12131e-05
-1.73576e-05
-2.35198e-05
-2.94574e-05
-3.48991e-05
-3.95691e-05
-4.32199e-05
-4.56658e-05
-4.68122e-05
-4.66704e-05
-4.53553e-05
-4.30634e-05
-4.00392e-05
-3.6539e-05
-3.28e-05
-2.90216e-05
-2.53573e-05
-2.19146e-05
-1.8761e-05
-1.59312e-05
-1.34346e-05
-1.12628e-05
-9.39587e-06
-7.80679e-06
-6.46552e-06
-5.34136e-06
-4.40473e-06
-3.62816e-06
-2.9869e-06
-2.45908e-06
-2.02573e-06
-1.67056e-06
-1.37978e-06
-1.14181e-06
-9.47048e-07
-7.87545e-07
-6.56786e-07
-5.49438e-07
-4.61139e-07
-3.88344e-07
-3.28185e-07
-2.78354e-07
-2.36998e-07
-2.02617e-07
-1.73978e-07
-1.50046e-07
-1.29938e-07
-1.12897e-07
-9.82799e-08
-8.55426e-08
-7.42337e-08
-6.398e-08
-5.44712e-08
-4.54476e-08
-3.66867e-08
-2.80238e-08
-1.9172e-08
-1.20302e-08
3.45601e-05
3.45183e-05
3.44116e-05
3.424e-05
3.40004e-05
3.36825e-05
3.32721e-05
3.27515e-05
3.20997e-05
3.12909e-05
3.02946e-05
2.90753e-05
2.75922e-05
2.58e-05
2.36496e-05
2.10897e-05
1.80696e-05
1.45438e-05
1.04772e-05
5.8528e-06
6.809e-07
-4.99112e-06
-1.1069e-05
-1.7404e-05
-2.37905e-05
-2.99712e-05
-3.5653e-05
-4.0534e-05
-4.434e-05
-4.68642e-05
-4.80014e-05
-4.7766e-05
-4.62888e-05
-4.37913e-05
-4.05458e-05
-3.68327e-05
-3.29069e-05
-2.89771e-05
-2.51992e-05
-2.1679e-05
-1.84791e-05
-1.5628e-05
-1.31293e-05
-1.09689e-05
-9.12213e-06
-7.55823e-06
-6.24434e-06
-5.14776e-06
-4.23755e-06
-3.48543e-06
-2.86621e-06
-2.35789e-06
-1.94149e-06
-1.60088e-06
-1.32245e-06
-1.09488e-06
-9.08793e-07
-7.56497e-07
-6.31698e-07
-5.29257e-07
-4.44981e-07
-3.75467e-07
-3.17968e-07
-2.70288e-07
-2.30665e-07
-1.97679e-07
-1.70158e-07
-1.47112e-07
-1.27694e-07
-1.11176e-07
-9.69412e-08
-8.44741e-08
-7.33524e-08
-6.32319e-08
-5.38294e-08
-4.49089e-08
-3.6266e-08
-2.77458e-08
-1.90549e-08
-1.20576e-08
3.46324e-05
3.4593e-05
3.44925e-05
3.43306e-05
3.41043e-05
3.38037e-05
3.34147e-05
3.29202e-05
3.22992e-05
3.15264e-05
3.0571e-05
2.93972e-05
2.79633e-05
2.62225e-05
2.4123e-05
2.16098e-05
1.86274e-05
1.51236e-05
1.10558e-05
6.3985e-06
1.15329e-06
-4.63958e-06
-1.08898e-05
-1.74474e-05
-2.40978e-05
-3.05663e-05
-3.65337e-05
-4.16666e-05
-4.56584e-05
-4.82764e-05
-4.94021e-05
-4.90535e-05
-4.73815e-05
-4.46382e-05
-4.11295e-05
-3.71652e-05
-3.30205e-05
-2.89146e-05
-2.50061e-05
-2.13976e-05
-1.81459e-05
-1.52722e-05
-1.27726e-05
-1.06268e-05
-8.80442e-06
-7.27044e-06
-5.98877e-06
-4.92442e-06
-4.04496e-06
-3.32119e-06
-2.72747e-06
-2.24164e-06
-1.84477e-06
-1.52089e-06
-1.25665e-06
-1.04099e-06
-8.64833e-07
-7.20772e-07
-6.02774e-07
-5.05925e-07
-4.26222e-07
-3.60426e-07
-3.05935e-07
-2.60678e-07
-2.23004e-07
-1.91585e-07
-1.65318e-07
-1.43267e-07
-1.24624e-07
-1.08695e-07
-9.4892e-08
-8.27332e-08
-7.18294e-08
-6.18695e-08
-5.2601e-08
-4.38131e-08
-3.53217e-08
-2.69836e-08
-1.85099e-08
-1.17595e-08
3.47121e-05
3.46753e-05
3.45816e-05
3.44306e-05
3.4219e-05
3.39374e-05
3.35722e-05
3.31066e-05
3.252e-05
3.17871e-05
3.08775e-05
2.97546e-05
2.83761e-05
2.66932e-05
2.46515e-05
2.21921e-05
1.92537e-05
1.57771e-05
1.17108e-05
7.01959e-06
1.69511e-06
-4.23109e-06
-1.06739e-05
-1.74825e-05
-2.44329e-05
-3.12306e-05
-3.75268e-05
-4.29509e-05
-4.71582e-05
-4.98849e-05
-5.09966e-05
-5.05157e-05
-4.86168e-05
-4.55887e-05
-4.17773e-05
-3.75264e-05
-3.3134e-05
-2.8831e-05
-2.47776e-05
-2.10727e-05
-1.77654e-05
-1.48688e-05
-1.23705e-05
-1.02427e-05
-8.44887e-06
-6.94925e-06
-5.70419e-06
-4.67622e-06
-3.83128e-06
-3.13924e-06
-2.57398e-06
-2.11319e-06
-1.73803e-06
-1.43274e-06
-1.18423e-06
-9.81776e-07
-8.16628e-07
-6.81698e-07
-5.71242e-07
-4.80596e-07
-4.05968e-07
-3.44299e-07
-2.93147e-07
-2.50582e-07
-2.15078e-07
-1.85405e-07
-1.6054e-07
-1.39605e-07
-1.21834e-07
-1.06567e-07
-9.32492e-08
-8.14348e-08
-7.07707e-08
-6.09817e-08
-5.18478e-08
-4.31854e-08
-3.483e-08
-2.66495e-08
-1.83506e-08
-1.17655e-08
3.47971e-05
3.47633e-05
3.46768e-05
3.45374e-05
3.43417e-05
3.40806e-05
3.37409e-05
3.33063e-05
3.27568e-05
3.20671e-05
3.12069e-05
3.01395e-05
2.88213e-05
2.72021e-05
2.52243e-05
2.28248e-05
1.99364e-05
1.64922e-05
1.2431e-05
7.70669e-06
2.29951e-06
-3.76911e-06
-1.04206e-05
-1.75039e-05
-2.47856e-05
-3.19499e-05
-3.86143e-05
-4.43664e-05
-4.88174e-05
-5.16671e-05
-5.27622e-05
-5.21304e-05
-4.99739e-05
-4.66245e-05
-4.24742e-05
-3.79052e-05
-3.32408e-05
-2.87233e-05
-2.45145e-05
-2.07075e-05
-1.73431e-05
-1.44245e-05
-1.19302e-05
-9.82394e-06
-8.06265e-06
-6.60138e-06
-5.39672e-06
-4.40859e-06
-3.60125e-06
-2.94362e-06
-2.40911e-06
-1.97532e-06
-1.62351e-06
-1.33815e-06
-1.1065e-06
-9.18159e-07
-7.64756e-07
-6.39554e-07
-5.37121e-07
-4.53062e-07
-3.83811e-07
-3.26505e-07
-2.78875e-07
-2.39146e-07
-2.05925e-07
-1.78096e-07
-1.54719e-07
-1.34976e-07
-1.18145e-07
-1.03602e-07
-9.08298e-08
-7.94168e-08
-6.9049e-08
-5.94886e-08
-5.05486e-08
-4.20723e-08
-3.39146e-08
-2.59541e-08
-1.78993e-08
-1.15648e-08
3.48855e-05
3.48546e-05
3.47758e-05
3.46484e-05
3.44693e-05
3.42295e-05
3.39166e-05
3.35146e-05
3.30039e-05
3.23597e-05
3.15517e-05
3.05429e-05
2.92889e-05
2.77375e-05
2.58286e-05
2.34943e-05
2.06615e-05
1.72548e-05
1.32029e-05
8.44775e-06
2.95706e-06
-3.25928e-06
-1.01306e-05
-1.7507e-05
-2.51456e-05
-3.27077e-05
-3.97751e-05
-4.5888e-05
-5.06082e-05
-5.35937e-05
-5.46698e-05
-5.38697e-05
-5.14275e-05
-4.77242e-05
-4.32034e-05
-3.82901e-05
-3.33344e-05
-2.85902e-05
-2.4219e-05
-2.03074e-05
-1.68862e-05
-1.39478e-05
-1.14605e-05
-9.37936e-06
-7.65418e-06
-6.23465e-06
-5.07345e-06
-4.12787e-06
-3.36048e-06
-2.73925e-06
-2.23717e-06
-1.83179e-06
-1.5045e-06
-1.24007e-06
-1.02607e-06
-8.52506e-07
-7.11395e-07
-5.96371e-07
-5.02335e-07
-4.25168e-07
-3.6154e-07
-3.08792e-07
-2.64834e-07
-2.28058e-07
-1.97213e-07
-1.71299e-07
-1.49462e-07
-1.30948e-07
-1.15078e-07
-1.01265e-07
-8.90277e-08
-7.79933e-08
-6.7888e-08
-5.85127e-08
-4.97144e-08
-4.1363e-08
-3.33319e-08
-2.55101e-08
-1.7608e-08
-1.14391e-08
3.49749e-05
3.49471e-05
3.4876e-05
3.47609e-05
3.45986e-05
3.43807e-05
3.4095e-05
3.37263e-05
3.32554e-05
3.26579e-05
3.19036e-05
3.09552e-05
2.97677e-05
2.82871e-05
2.64504e-05
2.41854e-05
2.14126e-05
1.80481e-05
1.40102e-05
9.22786e-06
3.65545e-06
-2.71002e-06
-9.80719e-06
-1.74884e-05
-2.55019e-05
-3.34861e-05
-4.0984e-05
-4.74851e-05
-5.2496e-05
-5.56286e-05
-5.66835e-05
-5.57e-05
-5.2948e-05
-4.88633e-05
-4.3947e-05
-3.86698e-05
-3.34099e-05
-2.84317e-05
-2.38955e-05
-1.98796e-05
-1.64037e-05
-1.34485e-05
-1.09716e-05
-8.91882e-06
-7.23268e-06
-5.85741e-06
-4.74178e-06
-3.84045e-06
-3.11437e-06
-2.53059e-06
-2.06178e-06
-1.68544e-06
-1.38316e-06
-1.14001e-06
-9.43926e-07
-7.85333e-07
-6.56654e-07
-5.51913e-07
-4.6635e-07
-3.96132e-07
-3.38169e-07
-2.90007e-07
-2.49747e-07
-2.1595e-07
-1.87516e-07
-1.63562e-07
-1.43321e-07
-1.26099e-07
-1.1126e-07
-9.8252e-08
-8.6629e-08
-7.60582e-08
-6.63064e-08
-5.72131e-08
-4.86577e-08
-4.05343e-08
-3.27323e-08
-2.51466e-08
-1.74813e-08
-1.15062e-08
3.50632e-05
3.50384e-05
3.4975e-05
3.48722e-05
3.47266e-05
3.45303e-05
3.42717e-05
3.39362e-05
3.3505e-05
3.29542e-05
3.22537e-05
3.13663e-05
3.0246e-05
2.88374e-05
2.70746e-05
2.48813e-05
2.21717e-05
1.88535e-05
1.48339e-05
1.00291e-05
4.37916e-06
-2.13279e-06
-9.456e-06
-1.74464e-05
-2.58445e-05
-3.42655e-05
-4.22126e-05
-4.91215e-05
-5.44396e-05
-5.77279e-05
-5.87598e-05
-5.7581e-05
-5.45009e-05
-5.00148e-05
-4.46859e-05
-3.90334e-05
-3.34635e-05
-2.82501e-05
-2.35506e-05
-1.94336e-05
-1.59068e-05
-1.29386e-05
-1.04754e-05
-8.45366e-06
-6.80868e-06
-5.47923e-06
-4.41027e-06
-3.55393e-06
-2.86961e-06
-2.32356e-06
-1.88815e-06
-1.5409e-06
-1.26362e-06
-1.04171e-06
-8.63488e-07
-7.19797e-07
-6.03482e-07
-5.08962e-07
-4.31813e-07
-3.68485e-07
-3.16122e-07
-2.72477e-07
-2.35841e-07
-2.0495e-07
-1.78854e-07
-1.56787e-07
-1.38069e-07
-1.22059e-07
-1.08162e-07
-9.58605e-08
-8.47451e-08
-7.45246e-08
-6.50089e-08
-5.60776e-08
-4.76433e-08
-3.96234e-08
-3.1922e-08
-2.44422e-08
-1.68992e-08
-1.11046e-08
3.51482e-05
3.51263e-05
3.50704e-05
3.49793e-05
3.48499e-05
3.46746e-05
3.44424e-05
3.4139e-05
3.37464e-05
3.32411e-05
3.25933e-05
3.17656e-05
3.07115e-05
2.93742e-05
2.76852e-05
2.55642e-05
2.29192e-05
1.96499e-05
1.56527e-05
1.08308e-05
5.10954e-06
-1.54235e-06
-9.08579e-06
-1.73816e-05
-2.61638e-05
-3.50255e-05
-4.34295e-05
-5.07562e-05
-5.63907e-05
-5.98399e-05
-6.08478e-05
-5.94664e-05
-5.60473e-05
-5.11495e-05
-4.54012e-05
-3.93714e-05
-3.34938e-05
-2.80502e-05
-2.31932e-05
-1.8981e-05
-1.54084e-05
-1.24311e-05
-9.98447e-06
-7.99565e-06
-6.39275e-06
-5.10936e-06
-4.08684e-06
-3.27492e-06
-2.63159e-06
-2.12242e-06
-1.71953e-06
-1.40053e-06
-1.14748e-06
-9.46095e-07
-7.85104e-07
-6.55765e-07
-5.51352e-07
-4.66669e-07
-3.97625e-07
-3.40938e-07
-2.93978e-07
-2.54701e-07
-2.21585e-07
-1.93539e-07
-1.69761e-07
-1.49599e-07
-1.32449e-07
-1.17719e-07
-1.04846e-07
-9.33437e-08
-8.28376e-08
-7.3078e-08
-6.39185e-08
-5.52784e-08
-4.71015e-08
-3.93254e-08
-3.18635e-08
-2.46179e-08
-1.72814e-08
-1.15803e-08
3.52277e-05
3.52086e-05
3.51596e-05
3.50796e-05
3.49655e-05
3.48099e-05
3.46025e-05
3.43296e-05
3.39736e-05
3.35114e-05
3.29136e-05
3.21429e-05
3.11521e-05
2.98834e-05
2.82658e-05
2.62154e-05
2.36346e-05
2.04153e-05
1.64435e-05
1.16097e-05
5.82505e-06
-9.56596e-07
-8.70843e-06
-1.72973e-05
-2.64522e-05
-3.57455e-05
-4.4601e-05
-5.23435e-05
-5.82948e-05
-6.19057e-05
-6.28893e-05
-6.13041e-05
-5.75448e-05
-5.22366e-05
-4.60742e-05
-3.9676e-05
-3.35016e-05
-2.78391e-05
-2.28349e-05
-1.85357e-05
-1.49233e-05
-1.19411e-05
-9.51313e-06
-7.55796e-06
-5.99684e-06
-4.75852e-06
-3.78097e-06
-3.01179e-06
-2.40772e-06
-1.93372e-06
-1.56176e-06
-1.26958e-06
-1.03947e-06
-8.5748e-07
-7.12733e-07
-5.969e-07
-5.03665e-07
-4.28207e-07
-3.66744e-07
-3.16246e-07
-2.74293e-07
-2.3903e-07
-2.09117e-07
-1.83634e-07
-1.61921e-07
-1.43433e-07
-1.27636e-07
-1.13979e-07
-1.01927e-07
-9.10208e-08
-8.09222e-08
-7.14247e-08
-6.24284e-08
-5.38944e-08
-4.57982e-08
-3.80968e-08
-3.07123e-08
-2.35508e-08
-1.63244e-08
-1.08421e-08
3.52996e-05
3.52831e-05
3.52404e-05
3.51706e-05
3.50704e-05
3.49328e-05
3.47481e-05
3.4503e-05
3.41804e-05
3.37578e-05
3.32061e-05
3.24879e-05
3.15558e-05
3.03508e-05
2.88001e-05
2.68163e-05
2.42969e-05
2.11265e-05
1.71817e-05
1.23411e-05
6.50196e-06
-3.96078e-07
-8.33865e-06
-1.71994e-05
-2.67039e-05
-3.64058e-05
-4.56923e-05
-5.38346e-05
-6.00924e-05
-6.38606e-05
-6.48208e-05
-6.30373e-05
-5.89486e-05
-5.32451e-05
-4.66874e-05
-3.99414e-05
-3.34904e-05
-2.76265e-05
-2.2489e-05
-1.81129e-05
-1.44672e-05
-1.14833e-05
-9.07518e-06
-7.15291e-06
-5.63164e-06
-4.4357e-06
-3.50009e-06
-2.77052e-06
-2.20264e-06
-1.76094e-06
-1.41733e-06
-1.14965e-06
-9.40472e-07
-7.76151e-07
-6.4618e-07
-5.42623e-07
-4.59558e-07
-3.92511e-07
-3.37983e-07
-2.93167e-07
-2.55829e-07
-2.24287e-07
-1.9737e-07
-1.74314e-07
-1.54595e-07
-1.37763e-07
-1.23343e-07
-1.10814e-07
-9.96595e-08
-8.94429e-08
-7.98578e-08
-7.074e-08
-6.20352e-08
-5.37453e-08
-4.58751e-08
-3.83976e-08
-3.12374e-08
-2.42903e-08
-1.72284e-08
-1.17295e-08
3.53623e-05
3.53479e-05
3.53109e-05
3.52499e-05
3.51618e-05
3.50401e-05
3.48753e-05
3.46547e-05
3.43616e-05
3.39739e-05
3.34628e-05
3.27911e-05
3.19112e-05
3.07631e-05
2.92724e-05
2.73488e-05
2.48856e-05
2.17608e-05
1.78428e-05
1.29995e-05
7.11536e-06
1.16923e-07
-7.99338e-06
-1.70964e-05
-2.69154e-05
-3.69882e-05
-4.6669e-05
-5.51796e-05
-6.17215e-05
-6.56362e-05
-6.6575e-05
-6.46073e-05
-6.02129e-05
-5.41449e-05
-4.72254e-05
-4.01645e-05
-3.34659e-05
-2.74241e-05
-2.21707e-05
-1.77292e-05
-1.40568e-05
-1.10741e-05
-8.68549e-06
-6.79396e-06
-5.30914e-06
-4.15153e-06
-3.25356e-06
-2.55932e-06
-2.0236e-06
-1.61052e-06
-1.29194e-06
-1.04586e-06
-8.55084e-07
-7.06252e-07
-5.89191e-07
-4.96328e-07
-4.22095e-07
-3.62331e-07
-3.13785e-07
-2.73841e-07
-2.40424e-07
-2.12002e-07
-1.87555e-07
-1.66467e-07
-1.48333e-07
-1.32792e-07
-1.19418e-07
-1.07712e-07
-9.71728e-08
-8.73815e-08
-7.80622e-08
-6.90928e-08
-6.04641e-08
-5.22187e-08
-4.43898e-08
-3.69647e-08
-2.98709e-08
-2.30023e-08
-1.6052e-08
-1.07974e-08
3.5414e-05
3.54015e-05
3.53691e-05
3.53154e-05
3.52375e-05
3.5129e-05
3.49808e-05
3.47806e-05
3.45121e-05
3.41536e-05
3.36767e-05
3.30441e-05
3.22081e-05
3.11082e-05
2.96684e-05
2.77963e-05
2.53814e-05
2.22967e-05
1.84033e-05
1.356e-05
7.64057e-06
5.59736e-07
-7.69066e-06
-1.69982e-05
-2.70853e-05
-3.74768e-05
-4.74987e-05
-5.633e-05
-6.31206e-05
-6.71644e-05
-6.80847e-05
-6.59556e-05
-6.12934e-05
-5.49075e-05
-4.7675e-05
-4.03441e-05
-3.34354e-05
-2.72444e-05
-2.1895e-05
-1.74005e-05
-1.37076e-05
-1.07275e-05
-8.35678e-06
-6.49207e-06
-5.03855e-06
-3.91354e-06
-3.04739e-06
-2.38289e-06
-1.87413e-06
-1.48499e-06
-1.18731e-06
-9.59249e-07
-7.83799e-07
-6.47859e-07
-5.4154e-07
-4.57581e-07
-3.90721e-07
-3.37063e-07
-2.93563e-07
-2.57756e-07
-2.27692e-07
-2.0196e-07
-1.79667e-07
-1.60321e-07
-1.43622e-07
-1.29281e-07
-1.16909e-07
-1.06025e-07
-9.61324e-08
-8.68247e-08
-7.78517e-08
-6.91278e-08
-6.06845e-08
-5.26003e-08
-4.49328e-08
-3.76795e-08
-3.07647e-08
-2.40655e-08
-1.72256e-08
-1.18722e-08
3.54535e-05
3.54423e-05
3.54135e-05
3.53656e-05
3.52955e-05
3.51972e-05
3.50618e-05
3.48774e-05
3.46279e-05
3.42921e-05
3.38417e-05
3.32395e-05
3.24378e-05
3.13755e-05
2.99757e-05
2.81442e-05
2.57677e-05
2.27152e-05
1.88422e-05
1.40004e-05
8.05482e-06
9.10981e-07
-7.44808e-06
-1.69158e-05
-2.72143e-05
-3.78586e-05
-4.81528e-05
-5.72416e-05
-6.42329e-05
-6.83814e-05
-6.92873e-05
-6.70278e-05
-6.21497e-05
-5.55083e-05
-4.80259e-05
-4.0481e-05
-3.34074e-05
-2.71002e-05
-2.1677e-05
-1.71424e-05
-1.34348e-05
-1.04578e-05
-8.10175e-06
-6.25854e-06
-4.82979e-06
-3.73042e-06
-2.88916e-06
-2.24782e-06
-1.76e-06
-1.38939e-06
-1.10787e-06
-8.9369e-07
-7.30024e-07
-6.0396e-07
-5.05832e-07
-4.28631e-07
-3.67343e-07
-3.18281e-07
-2.78559e-07
-2.45825e-07
-2.18219e-07
-1.9442e-07
-1.73638e-07
-1.55478e-07
-1.39728e-07
-1.26158e-07
-1.1441e-07
-1.04012e-07
-9.44709e-08
-8.53895e-08
-7.65381e-08
-6.78622e-08
-5.94284e-08
-5.13459e-08
-4.36929e-08
-3.64751e-08
-2.96137e-08
-2.29805e-08
-1.62327e-08
-1.10768e-08
3.54796e-05
3.54694e-05
3.5443e-05
3.5399e-05
3.53342e-05
3.52428e-05
3.51161e-05
3.49424e-05
3.47059e-05
3.43855e-05
3.39531e-05
3.33717e-05
3.25934e-05
3.15567e-05
3.01844e-05
2.83808e-05
2.60308e-05
2.30007e-05
1.91422e-05
1.43019e-05
8.33902e-06
1.15243e-06
-7.28101e-06
-1.6859e-05
-2.73038e-05
-3.8124e-05
-4.86084e-05
-5.78778e-05
-6.50104e-05
-6.9233e-05
-7.01291e-05
-6.77779e-05
-6.27479e-05
-5.59273e-05
-4.82702e-05
-4.05767e-05
-3.33893e-05
-2.70025e-05
-2.1529e-05
-1.69673e-05
-1.32499e-05
-1.02753e-05
-7.92946e-06
-6.101e-06
-4.68916e-06
-3.60723e-06
-2.78285e-06
-2.15718e-06
-1.68351e-06
-1.3254e-06
-1.05477e-06
-8.49957e-07
-6.94234e-07
-5.74821e-07
-4.82209e-07
-4.09564e-07
-3.52045e-07
-3.06112e-07
-2.68982e-07
-2.38373e-07
-2.1248e-07
-1.9004e-07
-1.70328e-07
-1.5302e-07
-1.37965e-07
-1.24976e-07
-1.13713e-07
-1.03709e-07
-9.44705e-08
-8.56035e-08
-7.68916e-08
-6.83025e-08
-5.99289e-08
-5.19031e-08
-4.43183e-08
-3.71846e-08
-3.0418e-08
-2.38745e-08
-1.71718e-08
-1.19042e-08
3.54918e-05
3.54821e-05
3.54569e-05
3.54147e-05
3.53526e-05
3.52646e-05
3.51422e-05
3.49738e-05
3.47438e-05
3.44311e-05
3.40076e-05
3.34366e-05
3.26699e-05
3.16462e-05
3.02876e-05
2.84979e-05
2.61612e-05
2.31423e-05
1.92909e-05
1.44513e-05
8.47937e-06
1.27079e-06
-7.20087e-06
-1.68355e-05
-2.73557e-05
-3.82666e-05
-4.88493e-05
-5.82122e-05
-6.54182e-05
-6.96795e-05
-7.05707e-05
-6.81721e-05
-6.30634e-05
-5.61501e-05
-4.8403e-05
-4.06332e-05
-3.33874e-05
-2.69598e-05
-2.14604e-05
-1.68846e-05
-1.3162e-05
-1.01882e-05
-7.8472e-06
-6.02585e-06
-4.62222e-06
-3.54876e-06
-2.73258e-06
-2.11453e-06
-1.6477e-06
-1.29564e-06
-1.03025e-06
-8.29937e-07
-6.7801e-07
-5.61752e-07
-4.7173e-07
-4.01201e-07
-3.45416e-07
-3.0091e-07
-2.64952e-07
-2.35291e-07
-2.10141e-07
-1.88264e-07
-1.68968e-07
-1.51968e-07
-1.37147e-07
-1.24341e-07
-1.13222e-07
-1.03323e-07
-9.41458e-08
-8.52959e-08
-7.65632e-08
-6.79286e-08
-5.95011e-08
-5.14285e-08
-4.38143e-08
-3.66719e-08
-2.99143e-08
-2.33919e-08
-1.67256e-08
-1.15419e-08
3.54896e-05
3.54799e-05
3.54546e-05
3.54123e-05
3.53501e-05
3.5262e-05
3.51394e-05
3.49708e-05
3.47405e-05
3.44275e-05
3.40037e-05
3.34322e-05
3.26652e-05
3.16409e-05
3.02817e-05
2.84915e-05
2.61541e-05
2.31344e-05
1.92822e-05
1.44416e-05
8.46873e-06
1.25908e-06
-7.2137e-06
-1.68496e-05
-2.73709e-05
-3.82831e-05
-4.88669e-05
-5.82309e-05
-6.54377e-05
-6.96996e-05
-7.05909e-05
-6.81922e-05
-6.3083e-05
-5.61693e-05
-4.84217e-05
-4.06512e-05
-3.34047e-05
-2.69763e-05
-2.1476e-05
-1.68991e-05
-1.31753e-05
-1.02004e-05
-7.85824e-06
-6.03582e-06
-4.6312e-06
-3.55682e-06
-2.7398e-06
-2.12098e-06
-1.65346e-06
-1.30078e-06
-1.03486e-06
-8.34062e-07
-6.81714e-07
-5.65078e-07
-4.74715e-07
-4.0388e-07
-3.47829e-07
-3.03098e-07
-2.66952e-07
-2.3713e-07
-2.11834e-07
-1.89817e-07
-1.70385e-07
-1.53254e-07
-1.38313e-07
-1.25403e-07
-1.14193e-07
-1.04212e-07
-9.49528e-08
-8.60174e-08
-7.71935e-08
-6.84646e-08
-5.99457e-08
-5.17915e-08
-4.41112e-08
-3.69206e-08
-3.01312e-08
-2.35885e-08
-1.6903e-08
-1.16854e-08
3.54731e-05
3.54628e-05
3.54362e-05
3.53919e-05
3.53268e-05
3.52349e-05
3.51077e-05
3.49333e-05
3.46961e-05
3.43748e-05
3.39413e-05
3.33587e-05
3.25791e-05
3.1541e-05
3.0167e-05
2.83615e-05
2.60094e-05
2.2977e-05
1.9116e-05
1.4273e-05
8.3072e-06
1.11747e-06
-7.31931e-06
-1.69008e-05
-2.73493e-05
-3.81731e-05
-4.8661e-05
-5.79335e-05
-6.50686e-05
-6.92929e-05
-7.01895e-05
-6.78378e-05
-6.28066e-05
-5.59845e-05
-4.83258e-05
-4.06306e-05
-3.34411e-05
-2.70518e-05
-2.15753e-05
-1.70104e-05
-1.32896e-05
-1.03115e-05
-7.96239e-06
-6.13075e-06
-4.71594e-06
-3.63126e-06
-2.80435e-06
-2.17639e-06
-1.70063e-06
-1.34065e-06
-1.06837e-06
-8.62107e-07
-7.05098e-07
-5.84527e-07
-4.90865e-07
-4.17277e-07
-3.58932e-07
-3.12294e-07
-2.74569e-07
-2.43447e-07
-2.17087e-07
-1.942e-07
-1.74054e-07
-1.56333e-07
-1.40901e-07
-1.27578e-07
-1.16026e-07
-1.05759e-07
-9.6264e-08
-8.71317e-08
-7.81403e-08
-6.92655e-08
-6.06176e-08
-5.23496e-08
-4.45708e-08
-3.72988e-08
-3.04462e-08
-2.38572e-08
-1.71349e-08
-1.18687e-08
3.54426e-05
3.54313e-05
3.54022e-05
3.53539e-05
3.52832e-05
3.51841e-05
3.50478e-05
3.48623e-05
3.46116e-05
3.42743e-05
3.38222e-05
3.32181e-05
3.24142e-05
3.13493e-05
2.99468e-05
2.81122e-05
2.57323e-05
2.2676e-05
1.87989e-05
1.39526e-05
8.00221e-06
8.53194e-07
-7.51135e-06
-1.69848e-05
-2.72892e-05
-3.79395e-05
-4.82394e-05
-5.73333e-05
-6.43287e-05
-6.84798e-05
-6.93866e-05
-6.71263e-05
-6.22463e-05
-5.56025e-05
-4.81174e-05
-4.05697e-05
-3.34927e-05
-2.71813e-05
-2.17533e-05
-1.72134e-05
-1.35002e-05
-1.05176e-05
-8.15615e-06
-6.30772e-06
-4.87409e-06
-3.77021e-06
-2.9248e-06
-2.27967e-06
-1.78842e-06
-1.41474e-06
-1.1305e-06
-9.13934e-07
-7.48155e-07
-6.20193e-07
-5.20349e-07
-4.4161e-07
-3.78975e-07
-3.28764e-07
-2.88072e-07
-2.54501e-07
-2.26135e-07
-2.01614e-07
-1.80131e-07
-1.61305e-07
-1.44945e-07
-1.30836e-07
-1.18614e-07
-1.07784e-07
-9.7821e-08
-8.8302e-08
-7.89894e-08
-6.98416e-08
-6.09533e-08
-5.24672e-08
-4.44878e-08
-3.70332e-08
-3.00197e-08
-2.3299e-08
-1.64967e-08
-1.12873e-08
3.53989e-05
3.53861e-05
3.53533e-05
3.52991e-05
3.52204e-05
3.51109e-05
3.49614e-05
3.47597e-05
3.44894e-05
3.41289e-05
3.36496e-05
3.30143e-05
3.21753e-05
3.10719e-05
2.96283e-05
2.77519e-05
2.53323e-05
2.22424e-05
1.83433e-05
1.34939e-05
7.56776e-06
4.79826e-07
-7.77809e-06
-1.70935e-05
-2.71887e-05
-3.75882e-05
-4.76178e-05
-5.6456e-05
-6.32521e-05
-6.72994e-05
-6.82209e-05
-6.60908e-05
-6.14261e-05
-5.50369e-05
-4.78009e-05
-4.0466e-05
-3.35527e-05
-2.7356e-05
-2.2e-05
-1.74983e-05
-1.37978e-05
-1.08101e-05
-8.43191e-06
-6.56005e-06
-5.09982e-06
-3.96861e-06
-3.09675e-06
-2.42703e-06
-1.91353e-06
-1.52013e-06
-1.21869e-06
-9.87309e-07
-8.08918e-07
-6.70341e-07
-5.61639e-07
-4.75543e-07
-4.06806e-07
-3.5154e-07
-3.06673e-07
-2.69682e-07
-2.38545e-07
-2.11797e-07
-1.88525e-07
-1.68247e-07
-1.50694e-07
-1.35592e-07
-1.22547e-07
-1.11046e-07
-1.00552e-07
-9.06247e-08
-8.10043e-08
-7.16219e-08
-6.25462e-08
-5.38996e-08
-4.57755e-08
-3.8189e-08
-3.1059e-08
-2.4239e-08
-1.73381e-08
-1.19597e-08
3.5343e-05
3.53284e-05
3.52908e-05
3.52291e-05
3.514e-05
3.5017e-05
3.48506e-05
3.4628e-05
3.43327e-05
3.39424e-05
3.34283e-05
3.27532e-05
3.18694e-05
3.07169e-05
2.92214e-05
2.72924e-05
2.48231e-05
2.16918e-05
1.77667e-05
1.29156e-05
7.02315e-06
1.58324e-08
-8.10386e-06
-1.72166e-05
-2.70456e-05
-3.71284e-05
-4.68187e-05
-5.53377e-05
-6.18862e-05
-6.58053e-05
-6.67455e-05
-6.47768e-05
-6.03794e-05
-5.43074e-05
-4.73835e-05
-4.03177e-05
-3.36132e-05
-2.75643e-05
-2.23027e-05
-1.78522e-05
-1.41705e-05
-1.11783e-05
-8.78039e-06
-6.87993e-06
-5.38671e-06
-4.22131e-06
-3.31616e-06
-2.61535e-06
-2.07366e-06
-1.65522e-06
-1.33187e-06
-1.08159e-06
-8.87087e-07
-7.34922e-07
-6.14859e-07
-5.19307e-07
-4.42709e-07
-3.80909e-07
-3.30627e-07
-2.89177e-07
-2.544e-07
-2.24697e-07
-1.99021e-07
-1.76767e-07
-1.57558e-07
-1.41053e-07
-1.26817e-07
-1.14317e-07
-1.03002e-07
-9.24177e-08
-8.22744e-08
-7.24701e-08
-6.30393e-08
-5.40772e-08
-4.56605e-08
-3.77991e-08
-3.04162e-08
-2.33788e-08
-1.63357e-08
-1.10289e-08
3.52762e-05
3.52594e-05
3.52162e-05
3.51454e-05
3.5044e-05
3.49049e-05
3.47182e-05
3.44708e-05
3.41455e-05
3.37198e-05
3.31644e-05
3.2442e-05
3.15053e-05
3.02951e-05
2.87386e-05
2.67483e-05
2.42217e-05
2.10435e-05
1.70901e-05
1.22404e-05
6.39134e-06
-5.17208e-07
-8.47084e-06
-1.73431e-05
-2.68593e-05
-3.65728e-05
-4.58702e-05
-5.40223e-05
-6.02877e-05
-6.40608e-05
-6.50228e-05
-6.32382e-05
-5.91461e-05
-5.34382e-05
-4.68753e-05
-4.01234e-05
-3.36654e-05
-2.77931e-05
-2.26461e-05
-1.82595e-05
-1.46028e-05
-1.16078e-05
-9.18869e-06
-7.25587e-06
-5.72466e-06
-4.51947e-06
-3.57533e-06
-2.83792e-06
-2.26292e-06
-1.81481e-06
-1.46548e-06
-1.19275e-06
-9.79094e-07
-8.10772e-07
-6.77202e-07
-5.70424e-07
-4.84518e-07
-4.15013e-07
-3.58377e-07
-3.11728e-07
-2.72737e-07
-2.39647e-07
-2.11251e-07
-1.86793e-07
-1.65774e-07
-1.47766e-07
-1.32283e-07
-1.18768e-07
-1.06655e-07
-9.5465e-08
-8.48789e-08
-7.47537e-08
-6.50825e-08
-5.5926e-08
-4.73386e-08
-3.93205e-08
-3.17953e-08
-2.46317e-08
-1.74576e-08
-1.19199e-08
3.52003e-05
3.5181e-05
3.51313e-05
3.50503e-05
3.49347e-05
3.47773e-05
3.45676e-05
3.42921e-05
3.39329e-05
3.3467e-05
3.28651e-05
3.20895e-05
3.10934e-05
2.98185e-05
2.81943e-05
2.61363e-05
2.35473e-05
2.0319e-05
1.63374e-05
1.14931e-05
5.69715e-06
-1.09646e-06
-8.86084e-06
-1.74627e-05
-2.66308e-05
-3.5937e-05
-4.48047e-05
-5.25579e-05
-5.85176e-05
-6.2134e-05
-6.31196e-05
-6.15332e-05
-5.77705e-05
-5.24573e-05
-4.62891e-05
-3.98842e-05
-3.37018e-05
-2.80298e-05
-2.30149e-05
-1.87039e-05
-1.50791e-05
-1.20843e-05
-9.64392e-06
-7.67678e-06
-6.10433e-06
-4.85543e-06
-3.86811e-06
-3.08995e-06
-2.47769e-06
-1.9963e-06
-1.61774e-06
-1.31971e-06
-1.08441e-06
-8.978e-07
-7.48903e-07
-6.29355e-07
-5.3284e-07
-4.54533e-07
-3.90615e-07
-3.37977e-07
-2.941e-07
-2.57044e-07
-2.25427e-07
-1.98326e-07
-1.75105e-07
-1.55239e-07
-1.38183e-07
-1.23353e-07
-1.10162e-07
-9.81089e-08
-8.68417e-08
-7.6175e-08
-6.60582e-08
-5.65145e-08
-4.75734e-08
-3.92245e-08
-3.13925e-08
-2.39583e-08
-1.65889e-08
-1.1066e-08
3.51171e-05
3.5095e-05
3.50382e-05
3.49459e-05
3.48149e-05
3.46375e-05
3.44027e-05
3.40964e-05
3.37002e-05
3.31908e-05
3.25382e-05
3.17051e-05
3.06449e-05
2.93007e-05
2.76042e-05
2.54747e-05
2.28205e-05
1.95412e-05
1.5533e-05
1.06994e-05
4.96558e-06
-1.69954e-06
-9.2568e-06
-1.75669e-05
-2.63634e-05
-3.5239e-05
-4.36562e-05
-5.09944e-05
-5.66379e-05
-6.0093e-05
-6.11031e-05
-5.97208e-05
-5.62981e-05
-5.1395e-05
-4.56403e-05
-3.96031e-05
-3.37166e-05
-2.82626e-05
-2.33939e-05
-1.91687e-05
-1.55825e-05
-1.25915e-05
-1.01311e-05
-8.12911e-06
-6.51365e-06
-5.21852e-06
-4.18511e-06
-3.36317e-06
-2.7107e-06
-2.19325e-06
-1.78294e-06
-1.45736e-06
-1.19847e-06
-9.91879e-07
-8.26225e-07
-6.92718e-07
-5.84617e-07
-4.96719e-07
-4.24891e-07
-3.65772e-07
-3.16629e-07
-2.75327e-07
-2.40292e-07
-2.10423e-07
-1.84935e-07
-1.63193e-07
-1.44586e-07
-1.2849e-07
-1.14293e-07
-1.01469e-07
-8.96284e-08
-7.85424e-08
-6.81138e-08
-5.83255e-08
-4.91788e-08
-4.0649e-08
-3.26568e-08
-2.50833e-08
-1.75771e-08
-1.18364e-08
3.50286e-05
3.50035e-05
3.49392e-05
3.4835e-05
3.46876e-05
3.4489e-05
3.42276e-05
3.38887e-05
3.34536e-05
3.28981e-05
3.21924e-05
3.1299e-05
3.01719e-05
2.87558e-05
2.69847e-05
2.47821e-05
2.20623e-05
1.87331e-05
1.47016e-05
9.88402e-06
4.22046e-06
-2.3058e-06
-9.6439e-06
-1.76495e-05
-2.60629e-05
-3.44988e-05
-4.24597e-05
-4.93806e-05
-5.47081e-05
-5.80026e-05
-5.90371e-05
-5.78574e-05
-5.47737e-05
-5.02822e-05
-4.49465e-05
-3.92859e-05
-3.37063e-05
-2.84818e-05
-2.37696e-05
-1.96388e-05
-1.60974e-05
-1.31144e-05
-1.06364e-05
-8.60045e-06
-6.94185e-06
-5.59963e-06
-4.5188e-06
-3.65152e-06
-2.95718e-06
-2.40205e-06
-1.95848e-06
-1.60397e-06
-1.32025e-06
-1.09259e-06
-9.09236e-07
-7.60957e-07
-6.4058e-07
-5.42506e-07
-4.62268e-07
-3.96236e-07
-3.41448e-07
-2.95562e-07
-2.56808e-07
-2.23903e-07
-1.95905e-07