/*--------------------------------*- C++ -*----------------------------------*\
| =========                 |                                                 |
| \\      /  F ield         | OpenFOAM: The Open Source CFD Toolbox           |
|  \\    /   O peration     | Version:  2512                                  |
|   \\  /    A nd           | Website:  www.openfoam.com                      |
|    \\/     M anipulation  |                                                 |
\*---------------------------------------------------------------------------*/
FoamFile
{
    version     2.0;
    format      ascii;
    arch        "LSB;label=32;scalar=64";
    class       volScalarField;
    location    "222";
    object      p;
}
// * * * * * * * * * * * * * * * * * * * * * * * * * * * * * * * * * * * * * //

dimensions      [0 2 -2 0 0 0 0];

internalField   nonuniform List<scalar> 
248793
(
6.0424e-06
6.03811e-06
6.02684e-06
6.00872e-06
5.98343e-06
5.94991e-06
5.90673e-06
5.85216e-06
5.78412e-06
5.70011e-06
5.59724e-06
5.47219e-06
5.32122e-06
5.14028e-06
4.92509e-06
4.67133e-06
4.37486e-06
4.03217e-06
3.64073e-06
3.19963e-06
2.71015e-06
2.17641e-06
1.60591e-06
1.00983e-06
4.031e-07
-1.96147e-07
-7.67596e-07
-1.29036e-06
-1.74498e-06
-2.11563e-06
-2.39191e-06
-2.57006e-06
-2.6532e-06
-2.65044e-06
-2.57534e-06
-2.44383e-06
-2.27232e-06
-2.07612e-06
-1.86839e-06
-1.65973e-06
-1.45805e-06
-1.26883e-06
-1.09541e-06
-9.39486e-07
-8.01462e-07
-6.80854e-07
-5.76591e-07
-4.87253e-07
-4.11263e-07
-3.47009e-07
-2.92935e-07
-2.47593e-07
-2.09671e-07
-1.78008e-07
-1.51591e-07
-1.29547e-07
-1.11135e-07
-9.57272e-08
-8.27996e-08
-7.19153e-08
-6.27124e-08
-5.48922e-08
-4.82093e-08
-4.24622e-08
-3.7486e-08
-3.31459e-08
-2.93315e-08
-2.59521e-08
-2.29336e-08
-2.02143e-08
-1.7743e-08
-1.54768e-08
-1.33789e-08
-1.14179e-08
-9.56633e-09
-7.80023e-09
-6.09883e-09
-4.44663e-09
-2.81599e-09
-1.34339e-09
6.04371e-06
6.03944e-06
6.02829e-06
6.01034e-06
5.98529e-06
5.95208e-06
5.90928e-06
5.85518e-06
5.78769e-06
5.70433e-06
5.60221e-06
5.47797e-06
5.3279e-06
5.1479e-06
4.93366e-06
4.68078e-06
4.38507e-06
4.04288e-06
3.65159e-06
3.21013e-06
2.71966e-06
2.18419e-06
1.61113e-06
1.01169e-06
4.00914e-07
-2.0283e-07
-7.78866e-07
-1.30587e-06
-1.76393e-06
-2.13681e-06
-2.41389e-06
-2.59137e-06
-2.67253e-06
-2.66685e-06
-2.58829e-06
-2.45321e-06
-2.27834e-06
-2.07921e-06
-1.86911e-06
-1.65865e-06
-1.45571e-06
-1.26568e-06
-1.09184e-06
-9.35771e-07
-7.97812e-07
-6.77406e-07
-5.73426e-07
-4.84414e-07
-4.08762e-07
-3.44837e-07
-2.91071e-07
-2.46009e-07
-2.08337e-07
-1.76893e-07
-1.50663e-07
-1.28779e-07
-1.10502e-07
-9.52071e-08
-8.23735e-08
-7.15669e-08
-6.24279e-08
-5.46602e-08
-4.80201e-08
-4.23079e-08
-3.73602e-08
-3.30433e-08
-2.92476e-08
-2.58837e-08
-2.28777e-08
-2.01688e-08
-1.77062e-08
-1.54472e-08
-1.33554e-08
-1.13997e-08
-9.55253e-09
-7.79026e-09
-6.09213e-09
-4.44238e-09
-2.81529e-09
-1.3364e-09
6.04625e-06
6.04206e-06
6.03113e-06
6.01352e-06
5.98894e-06
5.95633e-06
5.91429e-06
5.86111e-06
5.79471e-06
5.71263e-06
5.61196e-06
5.48935e-06
5.34105e-06
5.16291e-06
4.95054e-06
4.69943e-06
4.40522e-06
4.06406e-06
3.67308e-06
3.23096e-06
2.73857e-06
2.19969e-06
1.62159e-06
1.01552e-06
3.96731e-07
-2.15938e-07
-8.01103e-07
-1.33656e-06
-1.80148e-06
-2.17884e-06
-2.45752e-06
-2.63366e-06
-2.7109e-06
-2.6994e-06
-2.61396e-06
-2.47178e-06
-2.29025e-06
-2.08532e-06
-1.87052e-06
-1.6565e-06
-1.45106e-06
-1.25945e-06
-1.08477e-06
-9.28422e-07
-7.90592e-07
-6.70586e-07
-5.67169e-07
-4.78801e-07
-4.03816e-07
-3.40542e-07
-2.87386e-07
-2.42879e-07
-2.057e-07
-1.74686e-07
-1.48828e-07
-1.2726e-07
-1.0925e-07
-9.41782e-08
-8.15304e-08
-7.08773e-08
-6.18647e-08
-5.42006e-08
-4.76453e-08
-4.20022e-08
-3.71108e-08
-3.28396e-08
-2.90812e-08
-2.57477e-08
-2.27667e-08
-2.00784e-08
-1.76328e-08
-1.53881e-08
-1.33085e-08
-1.13631e-08
-9.52487e-09
-7.77015e-09
-6.07837e-09
-4.43373e-09
-2.81088e-09
-1.33209e-09
6.04999e-06
6.04592e-06
6.03531e-06
6.01821e-06
5.99431e-06
5.9626e-06
5.92167e-06
5.86985e-06
5.80507e-06
5.72487e-06
5.62636e-06
5.50616e-06
5.36048e-06
5.18511e-06
4.97553e-06
4.72705e-06
4.4351e-06
4.09551e-06
3.70505e-06
3.26199e-06
2.7668e-06
2.22291e-06
1.63738e-06
1.02145e-06
3.90711e-07
-2.35299e-07
-8.34138e-07
-1.38227e-06
-1.85749e-06
-2.24157e-06
-2.52264e-06
-2.69673e-06
-2.76804e-06
-2.74776e-06
-2.652e-06
-2.49918e-06
-2.3077e-06
-2.09417e-06
-1.87241e-06
-1.65313e-06
-1.44403e-06
-1.25011e-06
-1.07421e-06
-9.17492e-07
-7.79878e-07
-6.60482e-07
-5.57911e-07
-4.70506e-07
-3.96514e-07
-3.34207e-07
-2.81954e-07
-2.38267e-07
-2.01816e-07
-1.71438e-07
-1.46128e-07
-1.25026e-07
-1.07408e-07
-9.26657e-08
-8.02911e-08
-6.98639e-08
-6.10372e-08
-5.35254e-08
-4.70945e-08
-4.1553e-08
-3.67441e-08
-3.25401e-08
-2.88365e-08
-2.55477e-08
-2.26033e-08
-1.99451e-08
-1.75246e-08
-1.5301e-08
-1.32393e-08
-1.1309e-08
-9.48379e-09
-7.74015e-09
-6.05768e-09
-4.42064e-09
-2.80386e-09
-1.32825e-09
6.05483e-06
6.05092e-06
6.04071e-06
6.02427e-06
6.00127e-06
5.97072e-06
5.93124e-06
5.88118e-06
5.8185e-06
5.74076e-06
5.64506e-06
5.52801e-06
5.38576e-06
5.21402e-06
5.00811e-06
4.76313e-06
4.47417e-06
4.13671e-06
3.74702e-06
3.30284e-06
2.80409e-06
2.25372e-06
1.65849e-06
1.02963e-06
3.83152e-07
-2.60501e-07
-8.77477e-07
-1.44247e-06
-1.9314e-06
-2.3244e-06
-2.6086e-06
-2.77989e-06
-2.84321e-06
-2.81119e-06
-2.70169e-06
-2.53479e-06
-2.33019e-06
-2.10536e-06
-1.87451e-06
-1.64842e-06
-1.43458e-06
-1.23772e-06
-1.06031e-06
-9.03144e-07
-7.65854e-07
-6.47287e-07
-5.45843e-07
-4.59708e-07
-3.8702e-07
-3.25978e-07
-2.74904e-07
-2.32285e-07
-1.96783e-07
-1.67231e-07
-1.42631e-07
-1.22134e-07
-1.05026e-07
-9.07092e-08
-7.86885e-08
-6.85538e-08
-5.99676e-08
-5.26529e-08
-4.6383e-08
-4.09726e-08
-3.62706e-08
-3.21535e-08
-2.85206e-08
-2.52895e-08
-2.23924e-08
-1.97732e-08
-1.73852e-08
-1.51889e-08
-1.31502e-08
-1.12397e-08
-9.43128e-09
-7.70199e-09
-6.03157e-09
-4.40436e-09
-2.79534e-09
-1.32481e-09
6.06065e-06
6.05693e-06
6.04722e-06
6.03157e-06
6.00965e-06
5.9805e-06
5.94278e-06
5.89485e-06
5.83472e-06
5.75995e-06
5.66766e-06
5.55444e-06
5.41638e-06
5.24908e-06
5.04768e-06
4.80701e-06
4.52181e-06
4.18705e-06
3.79844e-06
3.35304e-06
2.8501e-06
2.29195e-06
1.68495e-06
1.04029e-06
3.74452e-07
-2.91003e-07
-9.30487e-07
-1.51647e-06
-2.02248e-06
-2.42659e-06
-2.71464e-06
-2.88233e-06
-2.93557e-06
-2.88884e-06
-2.76221e-06
-2.57785e-06
-2.35711e-06
-2.11844e-06
-1.87655e-06
-1.64222e-06
-1.42272e-06
-1.22237e-06
-1.04319e-06
-8.85575e-07
-7.48742e-07
-6.31229e-07
-5.31187e-07
-4.46618e-07
-3.75528e-07
-3.16029e-07
-2.6639e-07
-2.25068e-07
-1.90714e-07
-1.62162e-07
-1.38421e-07
-1.18654e-07
-1.0216e-07
-8.83567e-08
-7.67623e-08
-6.69796e-08
-5.86828e-08
-5.16051e-08
-4.55287e-08
-4.02759e-08
-3.57021e-08
-3.16893e-08
-2.81413e-08
-2.49795e-08
-2.21391e-08
-1.95667e-08
-1.72176e-08
-1.50539e-08
-1.3043e-08
-1.11562e-08
-9.36807e-09
-7.65605e-09
-6.00009e-09
-4.38464e-09
-2.78485e-09
-1.3209e-09
6.06731e-06
6.06381e-06
6.05468e-06
6.03993e-06
6.01925e-06
5.99171e-06
5.956e-06
5.91053e-06
5.85334e-06
5.78201e-06
5.69366e-06
5.58488e-06
5.45169e-06
5.28957e-06
5.09346e-06
4.85789e-06
4.57716e-06
4.24571e-06
3.85853e-06
3.41193e-06
2.90433e-06
2.3373e-06
1.7167e-06
1.05362e-06
3.65055e-07
-3.26151e-07
-9.92345e-07
-1.60332e-06
-2.12972e-06
-2.54706e-06
-2.83962e-06
-3.00286e-06
-3.04391e-06
-2.97951e-06
-2.83244e-06
-2.62741e-06
-2.38767e-06
-2.13286e-06
-1.87817e-06
-1.63438e-06
-1.40844e-06
-1.20418e-06
-1.0231e-06
-8.65055e-07
-7.28838e-07
-6.12611e-07
-5.1424e-07
-4.31513e-07
-3.62291e-07
-3.04586e-07
-2.5661e-07
-2.16787e-07
-1.83757e-07
-1.56356e-07
-1.33602e-07
-1.14673e-07
-9.88838e-08
-8.56689e-08
-7.45626e-08
-6.51828e-08
-5.72169e-08
-5.04101e-08
-4.45548e-08
-3.94821e-08
-3.50547e-08
-3.11609e-08
-2.77097e-08
-2.46268e-08
-2.18512e-08
-1.93322e-08
-1.70275e-08
-1.49011e-08
-1.29219e-08
-1.10622e-08
-9.29738e-09
-7.60516e-09
-5.96571e-09
-4.3636e-09
-2.77411e-09
-1.31754e-09
6.07465e-06
6.07139e-06
6.06288e-06
6.04914e-06
6.02984e-06
6.00408e-06
5.9706e-06
5.92786e-06
5.87392e-06
5.80642e-06
5.72247e-06
5.61865e-06
5.49093e-06
5.33464e-06
5.14451e-06
4.91475e-06
4.63919e-06
4.31163e-06
3.92632e-06
3.47865e-06
2.96609e-06
2.38934e-06
1.7536e-06
1.0698e-06
3.5546e-07
-3.65145e-07
-1.062e-06
-1.7018e-06
-2.25175e-06
-2.68437e-06
-2.98202e-06
-3.13994e-06
-3.16668e-06
-3.08172e-06
-2.91105e-06
-2.68234e-06
-2.42102e-06
-2.14803e-06
-1.87905e-06
-1.62481e-06
-1.39182e-06
-1.18337e-06
-1.00031e-06
-8.41937e-07
-7.06516e-07
-5.91805e-07
-4.95354e-07
-4.14721e-07
-3.47605e-07
-2.91912e-07
-2.45793e-07
-2.0764e-07
-1.76081e-07
-1.49956e-07
-1.28295e-07
-1.10291e-07
-9.52801e-08
-8.27142e-08
-7.21458e-08
-6.32095e-08
-5.56078e-08
-4.90989e-08
-4.34865e-08
-3.86115e-08
-3.43447e-08
-3.05815e-08
-2.72364e-08
-2.424e-08
-2.15352e-08
-1.90746e-08
-1.68186e-08
-1.47331e-08
-1.27887e-08
-1.09588e-08
-9.21963e-09
-7.54922e-09
-5.92794e-09
-4.34038e-09
-2.76201e-09
-1.31352e-09
6.08248e-06
6.07948e-06
6.07165e-06
6.05897e-06
6.04115e-06
6.0173e-06
5.98623e-06
5.94642e-06
5.89599e-06
5.83261e-06
5.75342e-06
5.65498e-06
5.5332e-06
5.38329e-06
5.19975e-06
4.97642e-06
4.70666e-06
4.38358e-06
4.00059e-06
3.55208e-06
3.03446e-06
2.4474e-06
1.79533e-06
1.0889e-06
3.4617e-07
-4.07077e-07
-1.1382e-06
-1.81034e-06
-2.38681e-06
-2.83661e-06
-3.13987e-06
-3.29155e-06
-3.30193e-06
-3.19365e-06
-2.99645e-06
-2.74135e-06
-2.45622e-06
-2.16335e-06
-1.87889e-06
-1.61344e-06
-1.37302e-06
-1.16023e-06
-9.75227e-07
-8.1665e-07
-6.82221e-07
-5.69248e-07
-4.74943e-07
-3.9662e-07
-3.31807e-07
-2.78304e-07
-2.34197e-07
-1.97847e-07
-1.67873e-07
-1.43119e-07
-1.22631e-07
-1.0562e-07
-9.14413e-08
-7.9569e-08
-6.95751e-08
-6.11121e-08
-5.38987e-08
-4.77072e-08
-4.23535e-08
-3.76889e-08
-3.3593e-08
-2.99685e-08
-2.67362e-08
-2.38317e-08
-2.12021e-08
-1.88035e-08
-1.65991e-08
-1.45571e-08
-1.26497e-08
-1.08516e-08
-9.13974e-09
-7.49262e-09
-5.89066e-09
-4.31841e-09
-2.75144e-09
-1.31091e-09
6.0906e-06
6.08788e-06
6.08075e-06
6.06919e-06
6.05291e-06
6.03106e-06
6.00249e-06
5.96575e-06
5.919e-06
5.85995e-06
5.78578e-06
5.69303e-06
5.57755e-06
5.43442e-06
5.25793e-06
5.04156e-06
4.77814e-06
4.46007e-06
4.07988e-06
3.63086e-06
3.10826e-06
2.51059e-06
1.84138e-06
1.1109e-06
3.37668e-07
-4.50935e-07
-1.21943e-06
-1.92705e-06
-2.53269e-06
-3.00135e-06
-3.31065e-06
-3.4552e-06
-3.44726e-06
-3.31316e-06
-3.08684e-06
-2.80305e-06
-2.49228e-06
-2.17823e-06
-1.87747e-06
-1.60035e-06
-1.3523e-06
-1.13516e-06
-9.48326e-07
-7.8972e-07
-6.5648e-07
-5.45446e-07
-4.53477e-07
-3.77635e-07
-3.15278e-07
-2.64095e-07
-2.22109e-07
-1.87654e-07
-1.5934e-07
-1.36021e-07
-1.16756e-07
-1.00779e-07
-8.74666e-08
-7.63151e-08
-6.69173e-08
-5.8945e-08
-5.21337e-08
-4.62706e-08
-4.11843e-08
-3.6737e-08
-3.28174e-08
-2.93359e-08
-2.62198e-08
-2.34098e-08
-2.08576e-08
-1.85228e-08
-1.63715e-08
-1.43742e-08
-1.2505e-08
-1.07399e-08
-9.05643e-09
-7.43355e-09
-5.85165e-09
-4.29521e-09
-2.73982e-09
-1.30741e-09
6.09882e-06
6.09637e-06
6.08995e-06
6.07954e-06
6.06482e-06
6.04501e-06
6.019e-06
5.98539e-06
5.9424e-06
5.88779e-06
5.81876e-06
5.73187e-06
5.6229e-06
5.48683e-06
5.31771e-06
5.10866e-06
4.852e-06
4.53941e-06
4.16246e-06
3.71334e-06
3.18601e-06
2.57773e-06
1.891e-06
1.13558e-06
3.3037e-07
-4.95633e-07
-1.30395e-06
-2.0496e-06
-2.68661e-06
-3.17556e-06
-3.4912e-06
-3.62778e-06
-3.59983e-06
-3.43776e-06
-3.18019e-06
-2.86594e-06
-2.52823e-06
-2.19217e-06
-1.87466e-06
-1.58571e-06
-1.33005e-06
-1.10869e-06
-9.202e-07
-7.6176e-07
-6.29894e-07
-5.20965e-07
-4.31475e-07
-3.58232e-07
-2.98424e-07
-2.49636e-07
-2.09832e-07
-1.77318e-07
-1.507e-07
-1.28842e-07
-1.10822e-07
-9.58944e-08
-8.34604e-08
-7.30388e-08
-6.42442e-08
-5.67678e-08
-5.03626e-08
-4.48308e-08
-4.00141e-08
-3.57856e-08
-3.20435e-08
-2.87057e-08
-2.57062e-08
-2.29912e-08
-2.05165e-08
-1.82457e-08
-1.61475e-08
-1.41951e-08
-1.23642e-08
-1.06322e-08
-8.97727e-09
-7.37879e-09
-5.81704e-09
-4.27623e-09
-2.73187e-09
-1.30653e-09
6.10693e-06
6.10475e-06
6.09904e-06
6.08975e-06
6.07659e-06
6.0588e-06
6.03533e-06
6.00484e-06
5.9656e-06
5.91543e-06
5.85156e-06
5.77054e-06
5.66814e-06
5.53921e-06
5.3776e-06
5.17609e-06
4.92646e-06
4.61968e-06
4.24638e-06
3.79758e-06
3.26593e-06
2.64733e-06
1.94314e-06
1.1625e-06
3.24576e-07
-5.4005e-07
-1.38982e-06
-2.17529e-06
-2.8453e-06
-3.35556e-06
-3.67772e-06
-3.80562e-06
-3.75628e-06
-3.56461e-06
-3.2743e-06
-2.92847e-06
-2.56314e-06
-2.20477e-06
-1.87048e-06
-1.56984e-06
-1.3068e-06
-1.08147e-06
-8.91549e-07
-7.33472e-07
-6.03137e-07
-4.9643e-07
-4.09499e-07
-3.38909e-07
-2.81682e-07
-2.35305e-07
-1.97686e-07
-1.67109e-07
-1.42179e-07
-1.21772e-07
-1.04984e-07
-9.10948e-08
-7.95277e-08
-6.98256e-08
-6.16246e-08
-5.46357e-08
-4.86291e-08
-4.34222e-08
-3.88694e-08
-3.4855e-08
-3.12862e-08
-2.80889e-08
-2.52031e-08
-2.25805e-08
-2.01813e-08
-1.79726e-08
-1.59263e-08
-1.40177e-08
-1.22242e-08
-1.05246e-08
-8.89794e-09
-7.32364e-09
-5.78187e-09
-4.25648e-09
-2.72282e-09
-1.3044e-09
6.11471e-06
6.1128e-06
6.10777e-06
6.09958e-06
6.08792e-06
6.07208e-06
6.05108e-06
6.02361e-06
5.98802e-06
5.94217e-06
5.88333e-06
5.80806e-06
5.71212e-06
5.59024e-06
5.43608e-06
5.2421e-06
4.99959e-06
4.69881e-06
4.32946e-06
3.8814e-06
3.34594e-06
2.71759e-06
1.99646e-06
1.19096e-06
3.20432e-07
-5.83068e-07
-1.47491e-06
-2.30105e-06
-3.00489e-06
-3.53702e-06
-3.86572e-06
-3.98443e-06
-3.9128e-06
-3.6906e-06
-3.36686e-06
-2.9891e-06
-2.59619e-06
-2.21578e-06
-1.86512e-06
-1.55323e-06
-1.28322e-06
-1.05425e-06
-8.63164e-07
-7.05628e-07
-5.76933e-07
-4.72499e-07
-3.88139e-07
-3.2018e-07
-2.65496e-07
-2.21479e-07
-1.8599e-07
-1.57296e-07
-1.34002e-07
-1.14998e-07
-9.94e-08
-8.65101e-08
-7.57769e-08
-6.67658e-08
-5.91342e-08
-5.26123e-08
-4.69872e-08
-4.20908e-08
-3.77901e-08
-3.39797e-08
-3.05759e-08
-2.75119e-08
-2.4734e-08
-2.21989e-08
-1.98711e-08
-1.7721e-08
-1.57235e-08
-1.3856e-08
-1.20978e-08
-1.04288e-08
-8.82881e-09
-7.27738e-09
-5.75443e-09
-4.24332e-09
-2.71904e-09
-1.30578e-09
6.12198e-06
6.12032e-06
6.11593e-06
6.10877e-06
6.09852e-06
6.08452e-06
6.06584e-06
6.04123e-06
6.00908e-06
5.96731e-06
5.91324e-06
5.84346e-06
5.75367e-06
5.63855e-06
5.49158e-06
5.30491e-06
5.06938e-06
4.77459e-06
4.40935e-06
3.9624e-06
3.4237e-06
2.7864e-06
2.04931e-06
1.22001e-06
3.17894e-07
-6.2363e-07
-1.55695e-06
-2.42347e-06
-3.16104e-06
-3.71499e-06
-4.0501e-06
-4.15934e-06
-4.06519e-06
-3.81239e-06
-3.45546e-06
-3.04637e-06
-2.62668e-06
-2.22512e-06
-1.85894e-06
-1.53652e-06
-1.2601e-06
-1.0279e-06
-8.35917e-07
-6.79062e-07
-5.52051e-07
-4.49864e-07
-3.68001e-07
-3.02574e-07
-2.50317e-07
-2.08543e-07
-1.75069e-07
-1.48149e-07
-1.26393e-07
-1.08704e-07
-9.42184e-08
-8.22616e-08
-7.23054e-08
-6.39369e-08
-5.68341e-08
-5.07452e-08
-4.54732e-08
-4.08636e-08
-3.67954e-08
-3.3173e-08
-2.99209e-08
-2.69793e-08
-2.43004e-08
-2.18455e-08
-1.9583e-08
-1.74867e-08
-1.55338e-08
-1.37041e-08
-1.19785e-08
-1.03378e-08
-8.76268e-09
-7.23271e-09
-5.72749e-09
-4.2298e-09
-2.71418e-09
-1.30574e-09
6.12855e-06
6.12711e-06
6.12331e-06
6.11707e-06
6.10812e-06
6.0958e-06
6.07923e-06
6.05722e-06
6.02823e-06
5.9902e-06
5.94051e-06
5.87577e-06
5.79167e-06
5.68282e-06
5.54253e-06
5.36273e-06
5.1338e-06
4.84478e-06
4.48362e-06
4.03802e-06
3.49671e-06
2.85144e-06
2.09978e-06
1.24843e-06
3.16709e-07
-6.60781e-07
-1.63364e-06
-2.53891e-06
-3.30902e-06
-3.88402e-06
-4.22521e-06
-4.3251e-06
-4.20895e-06
-3.92652e-06
-3.53776e-06
-3.09893e-06
-2.65408e-06
-2.23288e-06
-1.85243e-06
-1.52047e-06
-1.23834e-06
-1.00337e-06
-8.1072e-07
-6.54624e-07
-5.29259e-07
-4.29206e-07
-3.49678e-07
-2.86598e-07
-2.36578e-07
-1.9686e-07
-1.65228e-07
-1.39924e-07
-1.19564e-07
-1.03066e-07
-8.95873e-08
-7.8473e-08
-6.92168e-08
-6.14265e-08
-5.47986e-08
-4.90977e-08
-4.41415e-08
-3.97882e-08
-3.5927e-08
-3.24715e-08
-2.93539e-08
-2.65205e-08
-2.39287e-08
-2.1544e-08
-1.93386e-08
-1.7289e-08
-1.53749e-08
-1.35779e-08
-1.18803e-08
-1.02643e-08
-8.71072e-09
-7.19942e-09
-5.70957e-09
-4.22327e-09
-2.71445e-09
-1.30886e-09
6.13424e-06
6.13299e-06
6.12971e-06
6.12429e-06
6.11646e-06
6.10561e-06
6.09089e-06
6.07118e-06
6.04495e-06
6.01023e-06
5.9644e-06
5.90411e-06
5.82505e-06
5.72177e-06
5.58747e-06
5.41382e-06
5.19088e-06
4.90714e-06
4.54983e-06
4.1057e-06
3.56234e-06
2.91025e-06
2.14579e-06
1.27479e-06
3.16427e-07
-6.93716e-07
-1.70275e-06
-2.64368e-06
-3.44386e-06
-4.03836e-06
-4.3851e-06
-4.47614e-06
-4.33943e-06
-4.02953e-06
-3.6115e-06
-3.14558e-06
-2.67804e-06
-2.2393e-06
-1.84625e-06
-1.50595e-06
-1.21891e-06
-9.81625e-07
-7.88503e-07
-6.3317e-07
-5.09323e-07
-4.11193e-07
-3.33747e-07
-2.72744e-07
-2.24693e-07
-1.86777e-07
-1.56752e-07
-1.32855e-07
-1.13708e-07
-9.82417e-08
-8.56318e-08
-7.52436e-08
-6.65895e-08
-5.92952e-08
-5.30737e-08
-4.77043e-08
-4.30172e-08
-3.88815e-08
-3.51959e-08
-3.18816e-08
-2.88773e-08
-2.61348e-08
-2.3616e-08
-2.12902e-08
-1.91324e-08
-1.71217e-08
-1.524e-08
-1.34703e-08
-1.17964e-08
-1.02012e-08
-8.66603e-09
-7.17081e-09
-5.69425e-09
-4.21777e-09
-2.71467e-09
-1.31133e-09
6.13891e-06
6.13783e-06
6.13497e-06
6.13023e-06
6.12333e-06
6.1137e-06
6.10053e-06
6.08272e-06
6.0588e-06
6.02683e-06
5.98423e-06
5.92768e-06
5.85285e-06
5.75426e-06
5.62502e-06
5.45661e-06
5.23879e-06
4.9596e-06
4.60568e-06
4.16297e-06
3.61806e-06
2.96037e-06
2.1852e-06
1.29757e-06
3.16443e-07
-7.21803e-07
-1.76218e-06
-2.73417e-06
-3.56066e-06
-4.17225e-06
-4.52381e-06
-4.60697e-06
-4.45212e-06
-4.11812e-06
-3.67463e-06
-3.18532e-06
-2.69838e-06
-2.24477e-06
-1.84111e-06
-1.49385e-06
-1.20276e-06
-9.63599e-07
-7.70142e-07
-6.15488e-07
-4.92937e-07
-3.96427e-07
-3.20722e-07
-2.61447e-07
-2.15027e-07
-1.78597e-07
-1.49896e-07
-1.27154e-07
-1.08999e-07
-9.43756e-08
-8.24739e-08
-7.26756e-08
-6.45092e-08
-5.76157e-08
-5.17214e-08
-4.6618e-08
-4.2146e-08
-3.81835e-08
-3.46368e-08
-3.14336e-08
-2.85179e-08
-2.58461e-08
-2.33835e-08
-2.11026e-08
-1.8981e-08
-1.69996e-08
-1.5142e-08
-1.33928e-08
-1.17364e-08
-1.01567e-08
-8.63541e-09
-7.15231e-09
-5.68575e-09
-4.21647e-09
-2.71711e-09
-1.31459e-09
6.14243e-06
6.14147e-06
6.13894e-06
6.13472e-06
6.12855e-06
6.11986e-06
6.10788e-06
6.09154e-06
6.0694e-06
6.03955e-06
5.99946e-06
5.9458e-06
5.87426e-06
5.77932e-06
5.65402e-06
5.4897e-06
5.2759e-06
5.00032e-06
4.64911e-06
4.20758e-06
3.66154e-06
2.99954e-06
2.21599e-06
1.31526e-06
3.16075e-07
-7.44586e-07
-1.81008e-06
-2.8071e-06
-3.65486e-06
-4.28028e-06
-4.63572e-06
-4.71243e-06
-4.54282e-06
-4.18933e-06
-3.72536e-06
-3.21739e-06
-2.71506e-06
-2.24971e-06
-1.83773e-06
-1.48503e-06
-1.19078e-06
-9.50158e-07
-7.56432e-07
-6.02292e-07
-4.80724e-07
-3.85443e-07
-3.11057e-07
-2.53087e-07
-2.07896e-07
-1.72585e-07
-1.44875e-07
-1.22996e-07
-1.05581e-07
-9.15832e-08
-8.02054e-08
-7.08419e-08
-6.30336e-08
-5.64329e-08
-5.07766e-08
-4.58653e-08
-4.15478e-08
-3.77087e-08
-3.42603e-08
-3.1135e-08
-2.82808e-08
-2.56575e-08
-2.32331e-08
-2.09825e-08
-1.88848e-08
-1.69227e-08
-1.50809e-08
-1.3345e-08
-1.17002e-08
-1.01308e-08
-8.61882e-09
-7.14399e-09
-5.68427e-09
-4.21978e-09
-2.72247e-09
-1.31953e-09
6.14471e-06
6.14384e-06
6.14153e-06
6.13766e-06
6.13197e-06
6.12392e-06
6.11273e-06
6.09738e-06
6.07645e-06
6.04804e-06
6.00963e-06
5.95793e-06
5.88862e-06
5.79616e-06
5.67353e-06
5.512e-06
5.30094e-06
5.02781e-06
4.67844e-06
4.2377e-06
3.69085e-06
3.02583e-06
2.23643e-06
1.32652e-06
3.14674e-07
-7.61758e-07
-1.84498e-06
-2.85971e-06
-3.72256e-06
-4.35781e-06
-4.716e-06
-4.78811e-06
-4.608e-06
-4.2407e-06
-3.76228e-06
-3.2412e-06
-2.72809e-06
-2.25453e-06
-1.83673e-06
-1.4802e-06
-1.1837e-06
-9.41997e-07
-7.48007e-07
-5.94139e-07
-4.73167e-07
-3.78651e-07
-3.05096e-07
-2.47951e-07
-2.03537e-07
-1.68933e-07
-1.41849e-07
-1.20512e-07
-1.03559e-07
-8.99504e-08
-7.88962e-08
-6.97992e-08
-6.22083e-08
-5.57835e-08
-5.02684e-08
-4.54697e-08
-4.12411e-08
-3.74718e-08
-3.40775e-08
-3.09942e-08
-2.81722e-08
-2.55733e-08
-2.31675e-08
-2.09309e-08
-1.88439e-08
-1.689e-08
-1.50547e-08
-1.33242e-08
-1.16842e-08
-1.01192e-08
-8.61143e-09
-7.14046e-09
-5.68391e-09
-4.22145e-09
-2.72457e-09
-1.32101e-09
6.14569e-06
6.14486e-06
6.14265e-06
6.13895e-06
6.1335e-06
6.12575e-06
6.11496e-06
6.10009e-06
6.07974e-06
6.05203e-06
6.01445e-06
5.96371e-06
5.89548e-06
5.80423e-06
5.68291e-06
5.52273e-06
5.31298e-06
5.04102e-06
4.69248e-06
4.25201e-06
3.70461e-06
3.03786e-06
2.24525e-06
1.33038e-06
3.11738e-07
-7.73127e-07
-1.86582e-06
-2.89e-06
-3.7609e-06
-4.4014e-06
-4.76106e-06
-4.83072e-06
-4.64504e-06
-4.27043e-06
-3.78437e-06
-3.25635e-06
-2.73751e-06
-2.25955e-06
-1.83857e-06
-1.4799e-06
-1.18205e-06
-9.39619e-07
-7.45322e-07
-5.91432e-07
-4.70614e-07
-3.7635e-07
-3.03092e-07
-2.46252e-07
-2.02131e-07
-1.67793e-07
-1.40944e-07
-1.19808e-07
-1.03024e-07
-8.95539e-08
-7.86117e-08
-6.96036e-08
-6.2082e-08
-5.57102e-08
-5.02347e-08
-4.54647e-08
-4.12561e-08
-3.75001e-08
-3.41139e-08
-3.10346e-08
-2.82138e-08
-2.5614e-08
-2.3206e-08
-2.09663e-08
-1.88758e-08
-1.69184e-08
-1.50797e-08
-1.3346e-08
-1.17034e-08
-1.01364e-08
-8.62707e-09
-7.15491e-09
-5.69727e-09
-4.23348e-09
-2.7345e-09
-1.32792e-09
6.14533e-06
6.14449e-06
6.14228e-06
6.13857e-06
6.13309e-06
6.12531e-06
6.11449e-06
6.09958e-06
6.07918e-06
6.05141e-06
6.01377e-06
5.96294e-06
5.89463e-06
5.80327e-06
5.68183e-06
5.5215e-06
5.31158e-06
5.03941e-06
4.69062e-06
4.24985e-06
3.70208e-06
3.03491e-06
2.24179e-06
1.32633e-06
3.07022e-07
-7.78559e-07
-1.87198e-06
-2.89683e-06
-3.76828e-06
-4.40914e-06
-4.76891e-06
-4.83846e-06
-4.6525e-06
-4.27752e-06
-3.79105e-06
-3.2626e-06
-2.74331e-06
-2.2649e-06
-1.84347e-06
-1.48435e-06
-1.18608e-06
-9.43252e-07
-7.48582e-07
-5.94346e-07
-4.73212e-07
-3.7866e-07
-3.0514e-07
-2.48065e-07
-2.03732e-07
-1.69205e-07
-1.42186e-07
-1.20899e-07
-1.0398e-07
-9.03905e-08
-7.93424e-08
-7.02405e-08
-6.26361e-08
-5.61912e-08
-5.06512e-08
-4.58244e-08
-4.15659e-08
-3.77659e-08
-3.43411e-08
-3.12279e-08
-2.83774e-08
-2.57517e-08
-2.33212e-08
-2.10619e-08
-1.89545e-08
-1.69824e-08
-1.51311e-08
-1.33867e-08
-1.1735e-08
-1.01602e-08
-8.64442e-09
-7.16685e-09
-5.70469e-09
-4.23713e-09
-2.73506e-09
-1.32672e-09
6.14363e-06
6.14275e-06
6.14041e-06
6.13649e-06
6.13074e-06
6.1226e-06
6.11132e-06
6.09585e-06
6.07477e-06
6.04619e-06
6.00758e-06
5.95564e-06
5.88606e-06
5.79328e-06
5.67028e-06
5.50831e-06
5.29672e-06
5.02297e-06
4.67286e-06
4.23122e-06
3.6833e-06
3.01699e-06
2.22608e-06
1.31441e-06
3.00594e-07
-7.77963e-07
-1.86334e-06
-2.88007e-06
-3.74453e-06
-4.38082e-06
-4.73935e-06
-4.81114e-06
-4.63022e-06
-4.26184e-06
-3.78221e-06
-3.25984e-06
-2.74541e-06
-2.27051e-06
-1.85136e-06
-1.49352e-06
-1.19576e-06
-9.52869e-07
-7.57768e-07
-6.02873e-07
-4.8096e-07
-3.85587e-07
-3.11255e-07
-2.53409e-07
-2.08365e-07
-1.73197e-07
-1.45609e-07
-1.23822e-07
-1.06469e-07
-9.25042e-08
-8.11345e-08
-7.1758e-08
-6.39198e-08
-5.72764e-08
-5.15683e-08
-4.65992e-08
-4.22202e-08
-3.83183e-08
-3.48074e-08
-3.16212e-08
-2.8709e-08
-2.60311e-08
-2.35562e-08
-2.12592e-08
-1.91197e-08
-1.71203e-08
-1.52456e-08
-1.3481e-08
-1.18119e-08
-1.02222e-08
-8.69331e-09
-7.20449e-09
-5.73278e-09
-4.2573e-09
-2.74878e-09
-1.33489e-09
6.14064e-06
6.13966e-06
6.13708e-06
6.13279e-06
6.12651e-06
6.11768e-06
6.10553e-06
6.08899e-06
6.06661e-06
6.03648e-06
5.99605e-06
5.942e-06
5.87e-06
5.77454e-06
5.64861e-06
5.48356e-06
5.26889e-06
4.99228e-06
4.63983e-06
4.19681e-06
3.649e-06
2.98488e-06
2.19885e-06
1.29523e-06
2.9283e-07
-7.7129e-07
-1.84028e-06
-2.84053e-06
-3.69091e-06
-4.31801e-06
-4.67402e-06
-4.75025e-06
-4.57936e-06
-4.22413e-06
-3.75819e-06
-3.24814e-06
-2.74364e-06
-2.27608e-06
-1.86189e-06
-1.50704e-06
-1.21071e-06
-9.68138e-07
-7.72582e-07
-6.16747e-07
-4.93624e-07
-3.96924e-07
-3.21252e-07
-2.62121e-07
-2.15885e-07
-1.79638e-07
-1.51091e-07
-1.28465e-07
-1.10385e-07
-9.5796e-08
-8.38939e-08
-7.40659e-08
-6.58467e-08
-5.88828e-08
-5.2906e-08
-4.77119e-08
-4.3145e-08
-3.90863e-08
-3.54444e-08
-3.21491e-08
-2.91459e-08
-2.63921e-08
-2.38538e-08
-2.15039e-08
-1.932e-08
-1.72832e-08
-1.53769e-08
-1.35854e-08
-1.18932e-08
-1.02836e-08
-8.73748e-09
-7.23386e-09
-5.74975e-09
-4.26448e-09
-2.74906e-09
-1.33184e-09
6.13641e-06
6.13531e-06
6.13238e-06
6.12753e-06
6.12049e-06
6.11067e-06
6.09727e-06
6.07917e-06
6.05492e-06
6.02254e-06
5.97948e-06
5.92238e-06
5.84692e-06
5.74759e-06
5.61747e-06
5.44803e-06
5.229e-06
4.94837e-06
4.59273e-06
4.14796e-06
3.6006e-06
2.94e-06
2.16141e-06
1.26986e-06
2.84356e-07
-7.58568e-07
-1.80365e-06
-2.77999e-06
-3.60999e-06
-4.22385e-06
-4.57622e-06
-4.65878e-06
-4.50226e-06
-4.16595e-06
-3.71981e-06
-3.22768e-06
-2.7378e-06
-2.28117e-06
-1.8745e-06
-1.52429e-06
-1.23035e-06
-9.88504e-07
-7.92529e-07
-6.35543e-07
-5.10847e-07
-4.12379e-07
-3.34898e-07
-2.74018e-07
-2.26152e-07
-1.88426e-07
-1.58565e-07
-1.34787e-07
-1.15709e-07
-1.00266e-07
-8.76356e-08
-7.71919e-08
-6.84543e-08
-6.10558e-08
-5.47155e-08
-4.92183e-08
-4.43989e-08
-4.01301e-08
-3.63135e-08
-3.2873e-08
-2.97491e-08
-2.68947e-08
-2.42726e-08
-2.18527e-08
-1.961e-08
-1.75236e-08
-1.55752e-08
-1.37477e-08
-1.20243e-08
-1.03875e-08
-8.81765e-09
-7.29336e-09
-5.79174e-09
-4.29232e-09
-2.76615e-09
-1.34083e-09
6.13106e-06
6.12978e-06
6.12641e-06
6.12085e-06
6.11283e-06
6.10174e-06
6.08672e-06
6.06664e-06
6.03999e-06
6.00475e-06
5.95832e-06
5.89734e-06
5.81746e-06
5.71322e-06
5.5778e-06
5.40284e-06
5.17835e-06
4.89276e-06
4.53326e-06
4.08653e-06
3.54006e-06
2.88431e-06
2.11558e-06
1.23971e-06
2.75929e-07
-7.39965e-07
-1.75476e-06
-2.70098e-06
-3.50545e-06
-4.10274e-06
-4.45052e-06
-4.54091e-06
-4.40225e-06
-4.08957e-06
-3.66832e-06
-3.19891e-06
-2.72772e-06
-2.28524e-06
-1.88843e-06
-1.54444e-06
-1.25384e-06
-1.01319e-06
-8.16899e-07
-6.58628e-07
-5.32075e-07
-4.31472e-07
-3.51778e-07
-2.88741e-07
-2.38856e-07
-1.99293e-07
-1.67793e-07
-1.42578e-07
-1.22256e-07
-1.05745e-07
-9.22068e-08
-8.09956e-08
-7.16128e-08
-6.36742e-08
-5.68834e-08
-5.10115e-08
-4.5881e-08
-4.13544e-08
-3.73244e-08
-3.37074e-08
-3.04374e-08
-2.74621e-08
-2.47399e-08
-2.22369e-08
-1.99249e-08
-1.77806e-08
-1.57832e-08
-1.39141e-08
-1.2155e-08
-1.04871e-08
-8.89015e-09
-7.34247e-09
-5.8212e-09
-4.30626e-09
-2.76919e-09
-1.33808e-09
6.1247e-06
6.12322e-06
6.11931e-06
6.11291e-06
6.10372e-06
6.09111e-06
6.07417e-06
6.05173e-06
6.02221e-06
5.98356e-06
5.93314e-06
5.86755e-06
5.78245e-06
5.67243e-06
5.53078e-06
5.34937e-06
5.11856e-06
4.82731e-06
4.46351e-06
4.01477e-06
3.46975e-06
2.82013e-06
2.06343e-06
1.20635e-06
2.68321e-07
-7.1583e-07
-1.69532e-06
-2.60667e-06
-3.38169e-06
-3.95993e-06
-4.30238e-06
-4.40163e-06
-4.28334e-06
-3.99779e-06
-3.60534e-06
-3.16247e-06
-2.71335e-06
-2.28775e-06
-1.90289e-06
-1.56658e-06
-1.28024e-06
-1.04127e-06
-8.44862e-07
-6.85267e-07
-5.56673e-07
-4.53662e-07
-3.71442e-07
-3.05922e-07
-2.537e-07
-2.12002e-07
-1.78594e-07
-1.51703e-07
-1.29927e-07
-1.12168e-07
-9.7568e-08
-8.54595e-08
-7.53226e-08
-6.67532e-08
-5.94365e-08
-5.31273e-08
-4.76342e-08
-4.28073e-08
-3.85288e-08
-3.47063e-08
-3.12663e-08
-2.81504e-08
-2.53116e-08
-2.27115e-08
-2.03186e-08
-1.81062e-08
-1.60513e-08
-1.4133e-08
-1.23313e-08
-1.06263e-08
-8.99684e-09
-7.42086e-09
-5.8756e-09
-4.34133e-09
-2.78966e-09
-1.34782e-09
6.11748e-06
6.11577e-06
6.11126e-06
6.1039e-06
6.09338e-06
6.07904e-06
6.05993e-06
6.0348e-06
6.00204e-06
5.95954e-06
5.90461e-06
5.83382e-06
5.74286e-06
5.62637e-06
5.47779e-06
5.28924e-06
5.0515e-06
4.75411e-06
4.38579e-06
3.9352e-06
3.39224e-06
2.74996e-06
2.00714e-06
1.17138e-06
2.62206e-07
-6.86719e-07
-1.62736e-06
-2.50056e-06
-3.24355e-06
-3.80109e-06
-4.13768e-06
-4.24636e-06
-4.14999e-06
-3.89383e-06
-3.53284e-06
-3.11926e-06
-2.69478e-06
-2.28827e-06
-1.91709e-06
-1.58974e-06
-1.30853e-06
-1.07177e-06
-8.75484e-07
-7.14614e-07
-5.83892e-07
-4.78298e-07
-3.93326e-07
-3.25077e-07
-2.70269e-07
-2.26198e-07
-1.90663e-07
-1.61897e-07
-1.38492e-07
-1.19334e-07
-1.03542e-07
-9.04261e-08
-7.9442e-08
-7.01638e-08
-6.22565e-08
-5.54568e-08
-4.95572e-08
-4.43941e-08
-3.98381e-08
-3.57864e-08
-3.21574e-08
-2.88854e-08
-2.59176e-08
-2.32107e-08
-2.07289e-08
-1.84422e-08
-1.63246e-08
-1.43529e-08
-1.25054e-08
-1.07604e-08
-9.09614e-09
-7.49001e-09
-5.91936e-09
-4.36485e-09
-2.79843e-09
-1.3476e-09
6.1096e-06
6.10763e-06
6.10246e-06
6.09404e-06
6.08207e-06
6.06584e-06
6.04434e-06
6.01629e-06
5.97999e-06
5.9333e-06
5.87347e-06
5.79706e-06
5.69976e-06
5.57631e-06
5.42032e-06
5.22419e-06
4.97915e-06
4.67541e-06
4.30257e-06
3.85042e-06
3.31017e-06
2.67629e-06
1.94884e-06
1.13627e-06
2.58078e-07
-6.53399e-07
-1.55308e-06
-2.38635e-06
-3.09597e-06
-3.63198e-06
-3.96237e-06
-4.08061e-06
-4.00677e-06
-3.78107e-06
-3.45302e-06
-3.07042e-06
-2.67231e-06
-2.28648e-06
-1.93034e-06
-1.61301e-06
-1.33771e-06
-1.10368e-06
-9.07811e-07
-7.45798e-07
-6.12952e-07
-5.04699e-07
-4.16847e-07
-3.45713e-07
-2.88154e-07
-2.41544e-07
-2.03725e-07
-1.72941e-07
-1.4778e-07
-1.2711e-07
-1.1003e-07
-9.58235e-08
-8.39225e-08
-7.38771e-08
-6.53305e-08
-5.79999e-08
-5.16604e-08
-4.61336e-08
-4.12772e-08
-3.69778e-08
-3.31442e-08
-2.97035e-08
-2.6596e-08
-2.37733e-08
-2.1195e-08
-1.88275e-08
-1.66416e-08
-1.46116e-08
-1.27136e-08
-1.09248e-08
-9.22209e-09
-7.5826e-09
-5.98368e-09
-4.40624e-09
-2.82218e-09
-1.35814e-09
6.10122e-06
6.09898e-06
6.09311e-06
6.08357e-06
6.07006e-06
6.05183e-06
6.02781e-06
5.99665e-06
5.95662e-06
5.90551e-06
5.84053e-06
5.75822e-06
5.6543e-06
5.52361e-06
5.35993e-06
5.15601e-06
4.90355e-06
4.59347e-06
4.21631e-06
3.763e-06
3.2261e-06
2.60149e-06
1.89047e-06
1.10227e-06
2.56213e-07
-6.16811e-07
-1.47479e-06
-2.26769e-06
-2.94372e-06
-3.45808e-06
-3.78211e-06
-3.9097e-06
-3.85819e-06
-3.66299e-06
-3.36822e-06
-3.01728e-06
-2.64644e-06
-2.28228e-06
-1.94211e-06
-1.63561e-06
-1.36685e-06
-1.13603e-06
-9.40898e-07
-7.77931e-07
-6.43052e-07
-5.32152e-07
-4.4138e-07
-3.67289e-07
-3.06888e-07
-2.57642e-07
-2.17441e-07
-1.84548e-07
-1.57545e-07
-1.35287e-07
-1.16851e-07
-1.01496e-07
-8.86277e-08
-7.77729e-08
-6.85517e-08
-6.06605e-08
-5.38568e-08
-4.79463e-08
-4.27732e-08
-3.82125e-08
-3.41638e-08
-3.05454e-08
-2.72914e-08
-2.43472e-08
-2.1668e-08
-1.92161e-08
-1.6959e-08
-1.48683e-08
-1.29182e-08
-1.10841e-08