/*--------------------------------*- C++ -*----------------------------------*\
| =========                 |                                                 |
| \\      /  F ield         | OpenFOAM: The Open Source CFD Toolbox           |
|  \\    /   O peration     | Version:  2512                                  |
|   \\  /    A nd           | Website:  www.openfoam.com                      |
|    \\/     M anipulation  |                                                 |
\*---------------------------------------------------------------------------*/
FoamFile
{
    version     2.0;
    format      ascii;
    arch        "LSB;label=32;scalar=64";
    class       volScalarField;
    location    "183";
    object      p;
}
// * * * * * * * * * * * * * * * * * * * * * * * * * * * * * * * * * * * * * //

dimensions      [0 2 -2 0 0 0 0];

internalField   nonuniform List<scalar> 
248793
(
8.01872e-05
8.00919e-05
7.98493e-05
7.94597e-05
7.89165e-05
7.81976e-05
7.72718e-05
7.61023e-05
7.46449e-05
7.28473e-05
7.06484e-05
6.79788e-05
6.47613e-05
6.09126e-05
5.63459e-05
5.09754e-05
4.47224e-05
3.75235e-05
2.93411e-05
2.01759e-05
1.00801e-05
-8.28914e-07
-1.23583e-05
-2.42338e-05
-3.6102e-05
-4.75446e-05
-5.81045e-05
-6.7325e-05
-7.4796e-05
-8.0203e-05
-8.33668e-05
-8.42673e-05
-8.30433e-05
-7.99684e-05
-7.54095e-05
-6.97764e-05
-6.34752e-05
-5.68719e-05
-5.02709e-05
-4.39062e-05
-3.79429e-05
-3.24849e-05
-2.75853e-05
-2.32582e-05
-1.9489e-05
-1.62444e-05
-1.34795e-05
-1.11438e-05
-9.18548e-06
-7.5541e-06
-6.20266e-06
-5.08846e-06
-4.17354e-06
-3.42481e-06
-2.81374e-06
-2.31608e-06
-1.91137e-06
-1.58254e-06
-1.3154e-06
-1.09824e-06
-9.21455e-07
-7.77212e-07
-6.59124e-07
-5.62018e-07
-4.81713e-07
-4.14839e-07
-3.58689e-07
-3.11091e-07
-2.70305e-07
-2.34939e-07
-2.03881e-07
-1.76239e-07
-1.51301e-07
-1.28488e-07
-1.07327e-07
-8.74219e-08
-6.84362e-08
-5.00978e-08
-3.20766e-08
-1.56111e-08
8.0214e-05
8.01195e-05
7.98793e-05
7.94934e-05
7.89553e-05
7.82428e-05
7.73252e-05
7.61655e-05
7.47197e-05
7.29355e-05
7.07519e-05
6.80992e-05
6.48997e-05
6.10697e-05
5.65213e-05
5.11674e-05
4.49273e-05
3.77353e-05
2.95511e-05
2.03724e-05
1.02488e-05
-7.04899e-07
-1.22968e-05
-2.42517e-05
-3.62132e-05
-4.77567e-05
-5.84169e-05
-6.77265e-05
-7.52653e-05
-8.07102e-05
-8.38775e-05
-8.47473e-05
-8.34638e-05
-8.03094e-05
-7.56614e-05
-6.99397e-05
-6.35578e-05
-5.68868e-05
-5.02331e-05
-4.38304e-05
-3.78425e-05
-3.2371e-05
-2.74668e-05
-2.31415e-05
-1.93786e-05
-1.61429e-05
-1.33884e-05
-1.10635e-05
-9.11582e-06
-7.49445e-06
-6.15214e-06
-5.04607e-06
-4.13827e-06
-3.39567e-06
-2.78983e-06
-2.29657e-06
-1.89555e-06
-1.56977e-06
-1.30513e-06
-1.09003e-06
-9.14928e-07
-7.72047e-07
-6.5506e-07
-5.5884e-07
-4.79246e-07
-4.12939e-07
-3.57241e-07
-3.10001e-07
-2.69497e-07
-2.34352e-07
-2.03466e-07
-1.75957e-07
-1.51119e-07
-1.2838e-07
-1.07275e-07
-8.74109e-08
-6.84574e-08
-5.0146e-08
-3.21517e-08
-1.56637e-08
8.02668e-05
8.01741e-05
7.99385e-05
7.95599e-05
7.90318e-05
7.83322e-05
7.74306e-05
7.62902e-05
7.48674e-05
7.31098e-05
7.09563e-05
6.8337e-05
6.51735e-05
6.13806e-05
5.68687e-05
5.15478e-05
4.53336e-05
3.81558e-05
2.99686e-05
2.07639e-05
1.05854e-05
-4.5645e-07
-1.21721e-05
-2.42848e-05
-3.64317e-05
-4.81766e-05
-5.90367e-05
-6.85245e-05
-7.6199e-05
-8.172e-05
-8.48944e-05
-8.5703e-05
-8.43003e-05
-8.0987e-05
-7.61613e-05
-7.02629e-05
-6.37207e-05
-5.69153e-05
-5.01568e-05
-4.3679e-05
-3.76426e-05
-3.21448e-05
-2.72316e-05
-2.29101e-05
-1.91596e-05
-1.59419e-05
-1.32079e-05
-1.09046e-05
-8.97796e-06
-7.37641e-06
-6.05218e-06
-4.96221e-06
-4.0685e-06
-3.33804e-06
-2.74253e-06
-2.25797e-06
-1.86421e-06
-1.54445e-06
-1.28477e-06
-1.07372e-06
-9.01923e-07
-7.61716e-07
-6.46885e-07
-5.52395e-07
-4.74182e-07
-4.08975e-07
-3.54145e-07
-3.07589e-07
-2.6762e-07
-2.3289e-07
-2.02323e-07
-1.75056e-07
-1.50399e-07
-1.27794e-07
-1.06786e-07
-8.69946e-08
-6.80978e-08
-4.98372e-08
-3.18988e-08
-1.54747e-08
8.03444e-05
8.02544e-05
8.00255e-05
7.96577e-05
7.91443e-05
7.84636e-05
7.75855e-05
7.64737e-05
7.50847e-05
7.33664e-05
7.12575e-05
6.86877e-05
6.55775e-05
6.18398e-05
5.73823e-05
5.21108e-05
4.59357e-05
3.87797e-05
3.05892e-05
2.1347e-05
1.10885e-05
-8.31448e-08
-1.19818e-05
-2.43289e-05
-3.67522e-05
-4.87978e-05
-5.99574e-05
-6.97126e-05
-7.75908e-05
-8.32261e-05
-8.64109e-05
-8.71269e-05
-8.55447e-05
-8.19924e-05
-7.69003e-05
-7.07379e-05
-6.39571e-05
-5.69522e-05
-5.00391e-05
-4.34508e-05
-3.73435e-05
-3.18077e-05
-2.68821e-05
-2.25669e-05
-1.88356e-05
-1.56446e-05
-1.29415e-05
-1.06701e-05
-8.77476e-06
-7.20256e-06
-5.90505e-06
-4.83887e-06
-3.96594e-06
-3.25338e-06
-2.67309e-06
-2.20135e-06
-1.8183e-06
-1.5074e-06
-1.25503e-06
-1.04997e-06
-8.83039e-07
-7.46786e-07
-6.3515e-07
-5.43232e-07
-4.6708e-07
-4.03518e-07
-3.49998e-07
-3.04478e-07
-2.65327e-07
-2.31238e-07
-2.01168e-07
-1.74284e-07
-1.49918e-07
-1.2753e-07
-1.06682e-07
-8.70072e-08
-6.81973e-08
-5.00049e-08
-3.21168e-08
-1.56963e-08
8.04447e-05
8.03582e-05
8.01381e-05
7.97843e-05
7.92899e-05
7.86338e-05
7.77863e-05
7.67117e-05
7.53667e-05
7.36995e-05
7.16489e-05
6.91437e-05
6.61033e-05
6.24382e-05
5.80524e-05
5.28465e-05
4.67238e-05
3.95982e-05
3.14052e-05
2.21163e-05
1.17549e-05
4.14894e-07
-1.17229e-05
-2.43777e-05
-3.71656e-05
-4.96094e-05
-6.11668e-05
-7.12781e-05
-7.94281e-05
-8.52157e-05
-8.84138e-05
-8.90053e-05
-8.71826e-05
-8.33112e-05
-7.78648e-05
-7.13529e-05
-6.42576e-05
-5.69913e-05
-4.98767e-05
-4.31454e-05
-3.69471e-05
-3.13634e-05
-2.64232e-05
-2.21176e-05
-1.84121e-05
-1.52569e-05
-1.25944e-05
-1.03651e-05
-8.51068e-06
-6.97683e-06
-5.71416e-06
-4.67893e-06
-3.83302e-06
-3.14368e-06
-2.58313e-06
-2.128e-06
-1.75879e-06
-1.45936e-06
-1.21641e-06
-1.01905e-06
-8.58387e-07
-7.27206e-07
-6.19655e-07
-5.31012e-07
-4.57475e-07
-3.95992e-07
-3.44116e-07
-2.9989e-07
-2.61751e-07
-2.2845e-07
-1.98987e-07
-1.72567e-07
-1.48551e-07
-1.26426e-07
-1.05773e-07
-8.62434e-08
-6.75476e-08
-4.94541e-08
-3.16694e-08
-1.53835e-08
8.05653e-05
8.0483e-05
8.02735e-05
7.99365e-05
7.94652e-05
7.88387e-05
7.80282e-05
7.69985e-05
7.57068e-05
7.41017e-05
7.21218e-05
6.96954e-05
6.67402e-05
6.3164e-05
5.88664e-05
5.37419e-05
4.76851e-05
4.05991e-05
3.24063e-05
2.30636e-05
1.258e-05
1.03697e-06
-1.13916e-05
-2.44233e-05
-3.76602e-05
-5.05968e-05
-6.26486e-05
-7.32037e-05
-8.16933e-05
-8.76712e-05
-9.08852e-05
-9.13195e-05
-8.9195e-05
-8.49246e-05
-7.90373e-05
-7.2093e-05
-6.4611e-05
-5.70252e-05
-4.96662e-05
-4.27629e-05
-3.64564e-05
-3.08169e-05
-2.58612e-05
-2.15692e-05
-1.78966e-05
-1.47859e-05
-1.21736e-05
-9.99582e-06
-8.19145e-06
-6.70428e-06
-5.48394e-06
-4.48624e-06
-3.67304e-06
-3.01181e-06
-2.47512e-06
-2.04005e-06
-1.68757e-06
-1.40199e-06
-1.17044e-06
-9.82395e-07
-8.29323e-07
-7.04294e-07
-6.0171e-07
-5.1706e-07
-4.4672e-07
-3.87787e-07
-3.37936e-07
-2.95311e-07
-2.58431e-07
-2.26112e-07
-1.97409e-07
-1.7157e-07
-1.47992e-07
-1.2619e-07
-1.0577e-07
-8.64051e-08
-6.78237e-08
-4.98096e-08
-3.20703e-08
-1.57626e-08
8.07031e-05
8.06256e-05
8.04283e-05
8.01106e-05
7.96657e-05
7.90734e-05
7.83054e-05
7.73274e-05
7.60972e-05
7.45638e-05
7.26657e-05
7.03306e-05
6.74745e-05
6.40022e-05
5.98084e-05
5.47803e-05
4.88029e-05
4.17664e-05
3.35781e-05
2.41775e-05
1.35562e-05
1.78042e-06
-1.09852e-05
-2.44572e-05
-3.82221e-05
-5.17416e-05
-6.43811e-05
-7.5466e-05
-8.43618e-05
-9.05674e-05
-9.37992e-05
-9.40433e-05
-9.15554e-05
-8.68073e-05
-8.03951e-05
-7.29393e-05
-6.50033e-05
-5.70455e-05
-4.94041e-05
-4.23041e-05
-3.58757e-05
-3.01751e-05
-2.52047e-05
-2.09311e-05
-1.72987e-05
-1.4241e-05
-1.16878e-05
-9.57033e-06
-7.82417e-06
-6.3911e-06
-5.21968e-06
-4.26526e-06
-3.48969e-06
-2.86073e-06
-2.3514e-06
-1.93929e-06
-1.60592e-06
-1.33613e-06
-1.11753e-06
-9.40074e-07
-7.95597e-07
-6.77515e-07
-5.80521e-07
-5.00349e-07
-4.33581e-07
-3.77485e-07
-3.29877e-07
-2.8902e-07
-2.53525e-07
-2.22285e-07
-1.94418e-07
-1.69223e-07
-1.46137e-07
-1.24711e-07
-1.04576e-07
-8.54295e-08
-6.70207e-08
-4.91526e-08
-3.1555e-08
-1.5417e-08
8.08546e-05
8.07824e-05
8.05986e-05
8.03023e-05
7.98866e-05
7.9332e-05
7.86111e-05
7.76904e-05
7.65286e-05
7.50749e-05
7.32682e-05
7.10352e-05
6.82904e-05
6.49353e-05
6.08592e-05
5.59416e-05
5.00565e-05
4.308e-05
3.49021e-05
2.54425e-05
1.46725e-05
2.64012e-06
-1.05018e-05
-2.44702e-05
-3.8835e-05
-5.30212e-05
-6.63369e-05
-7.8034e-05
-8.74007e-05
-9.38701e-05
-9.71212e-05
-9.71422e-05
-9.42306e-05
-8.89282e-05
-8.19111e-05
-7.38704e-05
-6.54197e-05
-5.70438e-05
-4.90884e-05
-4.17722e-05
-3.5212e-05
-2.94476e-05
-2.44648e-05
-2.02151e-05
-1.66302e-05
-1.36336e-05
-1.11476e-05
-9.09819e-06
-7.41739e-06
-6.04486e-06
-4.92799e-06
-4.02173e-06
-3.28796e-06
-2.69481e-06
-2.2158e-06
-1.82912e-06
-1.51692e-06
-1.26462e-06
-1.06039e-06
-8.94666e-07
-7.59732e-07
-6.49375e-07
-5.58605e-07
-4.83428e-07
-4.20651e-07
-3.67728e-07
-3.22634e-07
-2.83754e-07
-2.49805e-07
-2.19763e-07
-1.92815e-07
-1.68313e-07
-1.45741e-07
-1.24686e-07
-1.04809e-07
-8.58341e-08
-6.75289e-08
-4.97143e-08
-3.2122e-08
-1.59098e-08
8.1016e-05
8.09495e-05
8.07801e-05
8.05066e-05
8.01222e-05
7.96081e-05
7.89379e-05
7.80789e-05
7.69906e-05
7.56231e-05
7.3915e-05
7.17929e-05
6.91694e-05
6.59425e-05
6.19962e-05
5.72016e-05
5.1421e-05
4.45152e-05
3.63551e-05
2.68386e-05
1.59136e-05
3.6072e-06
-9.94235e-06
-2.4454e-05
-3.94813e-05
-5.44093e-05
-6.8482e-05
-8.08683e-05
-9.07669e-05
-9.75344e-05
-0.000100806
-0.000100572
-9.71781e-05
-9.12494e-05
-8.35537e-05
-7.48626e-05
-6.58446e-05
-5.70129e-05
-4.87187e-05
-4.11724e-05
-3.44748e-05
-2.86467e-05
-2.36553e-05
-1.94354e-05
-1.5905e-05
-1.29768e-05
-1.0565e-05
-8.59005e-06
-6.9804e-06
-5.67346e-06
-4.61549e-06
-3.76105e-06
-3.07215e-06
-2.51733e-06
-2.07071e-06
-1.71114e-06
-1.42145e-06
-1.1877e-06
-9.98678e-07
-8.45347e-07
-7.20462e-07
-6.18217e-07
-5.33967e-07
-4.64008e-07
-4.0539e-07
-3.5577e-07
-3.1329e-07
-2.76472e-07
-2.44143e-07
-2.15368e-07
-1.89408e-07
-1.65674e-07
-1.43698e-07
-1.23106e-07
-1.0359e-07
-8.48972e-08
-6.68178e-08
-4.91898e-08
-3.17617e-08
-1.57083e-08
8.1183e-05
8.11224e-05
8.09681e-05
8.07185e-05
8.03668e-05
7.98949e-05
7.92776e-05
7.84831e-05
7.7472e-05
7.61949e-05
7.45909e-05
7.25859e-05
7.0091e-05
6.7001e-05
6.3194e-05
5.85328e-05
5.28675e-05
4.60427e-05
3.79089e-05
2.83401e-05
1.72589e-05
4.66821e-06
-9.31097e-06
-2.44019e-05
-4.01425e-05
-5.58758e-05
-7.0776e-05
-8.392e-05
-9.44059e-05
-0.000101503
-0.000104795
-0.000104275
-0.000100346
-9.37262e-05
-8.52873e-05
-7.58902e-05
-6.62632e-05
-5.69473e-05
-4.82976e-05
-4.05135e-05
-3.3677e-05
-2.77878e-05
-2.27929e-05
-1.8609e-05
-1.51395e-05
-1.22858e-05
-9.95389e-06
-8.0585e-06
-6.52438e-06
-5.28675e-06
-4.29083e-06
-3.49085e-06
-2.84901e-06
-2.33434e-06
-1.9216e-06
-1.59039e-06
-1.32422e-06
-1.10987e-06
-9.3674e-07
-7.96369e-07
-6.81998e-07
-5.88242e-07
-5.10815e-07
-4.46313e-07
-3.92038e-07
-3.45857e-07
-3.06084e-07
-2.71382e-07
-2.40692e-07
-2.13173e-07
-1.8816e-07
-1.65127e-07
-1.43658e-07
-1.23417e-07
-1.04129e-07
-8.55683e-08
-6.75447e-08
-4.99131e-08
-3.24265e-08
-1.62406e-08
8.13514e-05
8.12969e-05
8.11578e-05
8.09324e-05
8.06139e-05
8.01851e-05
7.96217e-05
7.88931e-05
7.79608e-05
7.67763e-05
7.52792e-05
7.33949e-05
7.10331e-05
6.80853e-05
6.44244e-05
5.99043e-05
5.43629e-05
4.76282e-05
3.95295e-05
2.99157e-05
1.86817e-05
5.80406e-06
-8.61647e-06
-2.43101e-05
-4.08002e-05
-5.73872e-05
-7.31715e-05
-8.713e-05
-9.825e-05
-0.000105703
-0.000109016
-0.000108184
-0.000103674
-9.6307e-05
-8.70724e-05
-7.69272e-05
-6.66618e-05
-5.68444e-05
-4.78313e-05
-3.98079e-05
-3.28352e-05
-2.68898e-05
-2.18971e-05
-1.77549e-05
-1.43516e-05
-1.1577e-05
-9.32878e-06
-7.51602e-06
-6.05985e-06
-4.89343e-06
-3.96097e-06
-3.2165e-06
-2.62248e-06
-2.14848e-06
-1.76999e-06
-1.46734e-06
-1.22483e-06
-1.02993e-06
-8.72715e-07
-7.45283e-07
-6.41388e-07
-5.56077e-07
-4.85428e-07
-4.26345e-07
-3.76388e-07
-3.33637e-07
-2.96579e-07
-2.64022e-07
-2.35021e-07
-2.08828e-07
-1.84855e-07
-1.62638e-07
-1.41809e-07
-1.22074e-07
-1.03187e-07
-8.49452e-08
-6.71768e-08
-4.97502e-08
-3.24226e-08
-1.63359e-08
8.15168e-05
8.14682e-05
8.13442e-05
8.11429e-05
8.08573e-05
8.04712e-05
7.99613e-05
7.92982e-05
7.84445e-05
7.73526e-05
7.59625e-05
7.41995e-05
7.1972e-05
6.91685e-05
6.56567e-05
6.12821e-05
5.58706e-05
4.92334e-05
4.11782e-05
3.15281e-05
2.01492e-05
6.98945e-06
-7.87312e-06
-2.41783e-05
-4.14372e-05
-5.89078e-05
-7.56145e-05
-9.04285e-05
-0.000102218
-0.000110047
-0.000113381
-0.000112216
-0.000107088
-9.89337e-05
-8.88672e-05
-7.7948e-05
-6.70295e-05
-5.67054e-05
-4.73303e-05
-3.90725e-05
-3.19699e-05
-2.59751e-05
-2.09905e-05
-1.68951e-05
-1.35619e-05
-1.08691e-05
-8.70662e-06
-6.97776e-06
-5.60028e-06
-4.50542e-06
-3.63654e-06
-2.94753e-06
-2.40119e-06
-1.96769e-06
-1.62326e-06
-1.349e-06
-1.12998e-06
-9.54393e-07
-8.12951e-07
-6.98345e-07
-6.04823e-07
-5.27859e-07
-4.63893e-07
-4.1013e-07
-3.64384e-07
-3.24945e-07
-2.90476e-07
-2.59922e-07
-2.32453e-07
-2.07414e-07
-1.84294e-07
-1.62692e-07
-1.4229e-07
-1.22833e-07
-1.04107e-07
-8.59326e-08
-6.81556e-08
-5.06594e-08
-3.32064e-08
-1.69281e-08
8.16748e-05
8.1632e-05
8.15226e-05
8.13444e-05
8.10907e-05
8.07458e-05
8.02878e-05
7.96882e-05
7.89108e-05
7.79089e-05
7.66232e-05
7.4979e-05
7.28834e-05
7.02224e-05
6.68588e-05
6.26302e-05
5.73509e-05
5.08157e-05
4.28113e-05
3.31345e-05
2.16222e-05
8.19254e-06
-7.10123e-06
-2.40111e-05
-4.20383e-05
-6.04005e-05
-7.80454e-05
-9.37357e-05
-0.000106214
-0.000114432
-0.000117786
-0.000116274
-0.000110506
-0.000101543
-9.06283e-05
-7.89282e-05
-6.73589e-05
-5.65361e-05
-4.68094e-05
-3.83281e-05
-3.11053e-05
-2.50685e-05
-2.00977e-05
-1.60524e-05
-1.27909e-05
-1.01804e-05
-8.10284e-06
-6.45653e-06
-5.15601e-06
-4.13078e-06
-3.32351e-06
-2.68805e-06
-2.1876e-06
-1.79297e-06
-1.48112e-06
-1.23396e-06
-1.0373e-06
-8.80047e-07
-7.53561e-07
-6.51094e-07
-5.67378e-07
-4.98302e-07
-4.40654e-07
-3.91933e-07
-3.50196e-07
-3.13936e-07
-2.8198e-07
-2.53408e-07
-2.27498e-07
-2.03683e-07
-1.81522e-07
-1.60674e-07
-1.40868e-07
-1.21884e-07
-1.03535e-07
-8.56586e-08
-6.81153e-08
-5.0797e-08
-3.34617e-08
-1.72117e-08
8.18212e-05
8.17838e-05
8.16881e-05
8.15316e-05
8.13078e-05
8.10017e-05
8.05924e-05
8.00527e-05
7.93473e-05
7.84306e-05
7.72438e-05
7.57124e-05
7.37427e-05
7.12185e-05
6.79978e-05
6.39114e-05
5.87623e-05
5.23302e-05
4.43814e-05
3.46874e-05
2.3056e-05
9.37534e-06
-6.32729e-06
-2.38182e-05
-4.25918e-05
-6.1828e-05
-8.04003e-05
-9.69627e-05
-0.000110131
-0.000118739
-0.000122113
-0.000120251
-0.000113839
-0.000104067
-9.23119e-05
-7.98466e-05
-6.76467e-05
-5.63469e-05
-4.62885e-05
-3.76e-05
-3.02692e-05
-2.41987e-05
-1.9246e-05
-1.52525e-05
-1.20622e-05
-9.5319e-06
-7.53638e-06
-5.96921e-06
-4.74208e-06
-3.78301e-06
-3.03408e-06
-2.44922e-06
-1.99203e-06
-1.63398e-06
-1.35276e-06
-1.13104e-06
-9.55342e-07
-8.15264e-07
-7.0276e-07
-6.11616e-07
-5.37023e-07
-4.75256e-07
-4.23429e-07
-3.79315e-07
-3.41201e-07
-3.07769e-07
-2.78001e-07
-2.51101e-07
-2.26451e-07
-2.03568e-07
-1.8208e-07
-1.61701e-07
-1.42205e-07
-1.23408e-07
-1.05146e-07
-8.72763e-08
-6.96722e-08
-5.22357e-08
-3.47186e-08
-1.8181e-08
8.19522e-05
8.19196e-05
8.18363e-05
8.16996e-05
8.15029e-05
8.12321e-05
8.08672e-05
8.0382e-05
7.97423e-05
7.89034e-05
7.78074e-05
7.63798e-05
7.45262e-05
7.21286e-05
6.90411e-05
6.5088e-05
6.00627e-05
5.37305e-05
4.5839e-05
3.61361e-05
2.44017e-05
1.04948e-05
-5.58333e-06
-2.36146e-05
-4.30895e-05
-6.31544e-05
-8.26129e-05
-0.000100014
-0.00011385
-0.000122837
-0.000126229
-0.000124026
-0.000116989
-0.000106435
-9.3876e-05
-8.06852e-05
-6.78943e-05
-5.61526e-05
-4.5791e-05
-3.69161e-05
-2.9491e-05
-2.33941e-05
-1.84621e-05
-1.45193e-05
-1.13964e-05
-8.94108e-06
-7.02148e-06
-5.52706e-06
-4.36703e-06
-3.46816e-06
-2.77213e-06
-2.23296e-06
-1.81473e-06
-1.48951e-06
-1.2357e-06
-1.03667e-06
-8.79628e-07
-7.54788e-07
-6.54662e-07
-5.73523e-07
-5.06979e-07
-4.51654e-07
-4.0496e-07
-3.64916e-07
-3.30016e-07
-2.99112e-07
-2.71324e-07
-2.4597e-07
-2.2252e-07
-2.00564e-07
-1.79792e-07
-1.59967e-07
-1.40903e-07
-1.2244e-07
-1.04437e-07
-8.67632e-08
-6.93014e-08
-5.19614e-08
-3.4503e-08
-1.80147e-08
8.2064e-05
8.20357e-05
8.19632e-05
8.18437e-05
8.16707e-05
8.14307e-05
8.11045e-05
8.0667e-05
8.0085e-05
7.93144e-05
7.82982e-05
7.69621e-05
7.52113e-05
7.2926e-05
6.99574e-05
6.61241e-05
6.12108e-05
5.49708e-05
4.71346e-05
3.74289e-05
2.56083e-05
1.15047e-05
-4.90541e-06
-2.342e-05
-4.35279e-05
-6.43467e-05
-8.46174e-05
-0.000102793
-0.000117248
-0.000126588
-0.000129997
-0.000127475
-0.000119857
-0.000108579
-9.52811e-05
-8.14303e-05
-6.81073e-05
-5.59721e-05
-4.53436e-05
-3.63071e-05
-2.88023e-05
-2.26857e-05
-1.7775e-05
-1.38791e-05
-1.08174e-05
-8.42919e-06
-6.57708e-06
-5.14699e-06
-4.04606e-06
-3.20005e-06
-2.55033e-06
-2.0511e-06
-1.66683e-06
-1.37019e-06
-1.14021e-06
-9.60863e-07
-8.19979e-07
-7.08313e-07
-6.18868e-07
-5.46339e-07
-4.86697e-07
-4.3687e-07
-3.94526e-07
-3.579e-07
-3.25665e-07
-2.96821e-07
-2.70608e-07
-2.46442e-07
-2.23872e-07
-2.02553e-07
-1.82227e-07
-1.62702e-07
-1.43824e-07
-1.2546e-07
-1.07485e-07
-8.97794e-08
-7.22347e-08
-5.47603e-08
-3.70722e-08
-2.00946e-08
8.21536e-05
8.21288e-05
8.20652e-05
8.196e-05
8.18065e-05
8.1592e-05
8.12979e-05
8.09e-05
8.03657e-05
7.9652e-05
7.87022e-05
7.74424e-05
7.57776e-05
7.35867e-05
7.07182e-05
6.69863e-05
6.21685e-05
5.60079e-05
4.82209e-05
3.85158e-05
2.66256e-05
1.23585e-05
-4.33131e-06
-2.32568e-05
-4.39068e-05
-6.5376e-05
-8.63518e-05
-0.000105203
-0.000120201
-0.000129852
-0.000133277
-0.000130474
-0.000122344
-0.000110433
-9.64921e-05
-8.20721e-05
-6.82944e-05
-5.58258e-05
-4.49732e-05
-3.58023e-05
-2.82323e-05
-2.21007e-05
-1.7209e-05
-1.3353e-05
-1.03427e-05
-8.01033e-06
-6.21414e-06
-4.83709e-06
-3.78469e-06
-2.98191e-06
-2.36991e-06
-1.90306e-06
-1.54624e-06
-1.27258e-06
-1.06165e-06
-8.97984e-07
-7.69887e-07
-6.68583e-07
-5.8748e-07
-5.21628e-07
-4.67293e-07
-4.21655e-07
-3.8259e-07
-3.48509e-07
-3.18233e-07
-2.90883e-07
-2.65799e-07
-2.42474e-07
-2.20519e-07
-1.99643e-07
-1.79629e-07
-1.60318e-07
-1.41582e-07
-1.23306e-07
-1.05379e-07
-8.76884e-08
-7.01342e-08
-5.26394e-08
-3.49797e-08
-1.82934e-08
8.22184e-05
8.21963e-05
8.21395e-05
8.20451e-05
8.19065e-05
8.17114e-05
8.14418e-05
8.10741e-05
8.05764e-05
7.99062e-05
7.90074e-05
7.78064e-05
7.62078e-05
7.40897e-05
7.12987e-05
6.76455e-05
6.29022e-05
5.68038e-05
4.90556e-05
3.93517e-05
2.74076e-05
1.30126e-05
-3.89736e-06
-2.3148e-05
-4.42294e-05
-6.62185e-05
-8.77607e-05
-0.000107158
-0.000122595
-0.0001325
-0.000135937
-0.000132905
-0.00012436
-0.000111937
-9.74796e-05
-8.26051e-05
-6.84666e-05
-5.57352e-05
-4.47066e-05
-3.54306e-05
-2.78096e-05
-2.16662e-05
-1.67888e-05
-1.29634e-05
-9.99213e-06
-7.70235e-06
-5.94865e-06
-4.61181e-06
-3.59612e-06
-2.82598e-06
-2.24241e-06
-1.79992e-06
-1.4637e-06
-1.20727e-06
-1.01061e-06
-8.58644e-07
-7.40088e-07
-6.46504e-07
-5.71613e-07
-5.10727e-07
-4.60337e-07
-4.17808e-07
-3.81171e-07
-3.48969e-07
-3.20134e-07
-2.93877e-07
-2.6961e-07
-2.46886e-07
-2.25364e-07
-2.04788e-07
-1.84972e-07
-1.65782e-07
-1.4711e-07
-1.28854e-07
-1.1091e-07
-9.31736e-08
-7.55438e-08
-5.79279e-08
-3.99843e-08
-2.24468e-08
8.22564e-05
8.22361e-05
8.21838e-05
8.20964e-05
8.19677e-05
8.17854e-05
8.1532e-05
8.11843e-05
8.07108e-05
8.00695e-05
7.92046e-05
7.80427e-05
7.64882e-05
7.44187e-05
7.16794e-05
6.80787e-05
6.33849e-05
5.73275e-05
4.96043e-05
3.98993e-05
2.7916e-05
1.34302e-05
-3.63488e-06
-2.31144e-05
-4.44996e-05
-6.68556e-05
-8.87984e-05
-0.000108582
-0.000124333
-0.000134417
-0.000137864
-0.000134669
-0.000125829
-0.000113042
-9.822e-05
-8.30256e-05
-6.8634e-05
-5.5718e-05
-4.45654e-05
-3.52143e-05
-2.75557e-05
-2.14015e-05
-1.65312e-05
-1.2724e-05
-9.77693e-06
-7.51371e-06
-5.78659e-06
-4.47491e-06
-3.48211e-06
-2.73219e-06
-2.16611e-06
-1.73846e-06
-1.41464e-06
-1.16843e-06
-9.80084e-07
-8.348e-07
-7.21542e-07
-6.32112e-07
-5.60433e-07
-5.01993e-07
-4.53427e-07
-4.12219e-07
-3.76503e-07
-3.44906e-07
-3.1643e-07
-2.90346e-07
-2.66115e-07
-2.43326e-07
-2.21668e-07
-2.00907e-07
-1.80878e-07
-1.61461e-07
-1.42557e-07
-1.24074e-07
-1.05912e-07
-8.79703e-08
-7.01546e-08
-5.23994e-08
-3.45135e-08
-1.77625e-08
8.22663e-05
8.22468e-05
8.21965e-05
8.21124e-05
8.19881e-05
8.18116e-05
8.15656e-05
8.12271e-05
8.07647e-05
8.01368e-05
7.92875e-05
7.81436e-05
7.66095e-05
7.45624e-05
7.18467e-05
6.82697e-05
6.35978e-05
5.75575e-05
4.98427e-05
4.01322e-05
2.81234e-05
1.3585e-05
-3.56658e-06
-2.31712e-05
-4.47208e-05
-6.72741e-05
-8.94318e-05
-0.000109423
-0.00012534
-0.000135521
-0.000138972
-0.00013569
-0.000126693
-0.000113713
-9.86964e-05
-8.33316e-05
-6.88043e-05
-5.5788e-05
-4.45661e-05
-3.5171e-05
-2.74876e-05
-2.13225e-05
-1.64508e-05
-1.26481e-05
-9.709e-06
-7.45531e-06
-5.73811e-06
-4.43597e-06
-3.45189e-06
-2.70968e-06
-2.15021e-06
-1.72812e-06
-1.40886e-06
-1.16634e-06
-9.80932e-07
-8.37946e-07
-7.26458e-07
-6.38371e-07
-5.67694e-07
-5.09986e-07
-4.6194e-07
-4.21086e-07
-3.85595e-07
-3.54123e-07
-3.257e-07
-2.99619e-07
-2.75356e-07
-2.52514e-07
-2.30789e-07
-2.09957e-07
-1.89856e-07
-1.7037e-07
-1.51403e-07
-1.32865e-07
-1.14655e-07
-9.66706e-08
-7.88088e-08
-6.09648e-08
-4.27304e-08
-2.46429e-08
8.22475e-05
8.22279e-05
8.2177e-05
8.20921e-05
8.19668e-05
8.17889e-05
8.15413e-05
8.12007e-05
8.0736e-05
8.01053e-05
7.92529e-05
7.81053e-05
7.6567e-05
7.4515e-05
7.17939e-05
6.82105e-05
6.35314e-05
5.74828e-05
4.97585e-05
4.00372e-05
2.8016e-05
1.34635e-05
-3.70377e-06
-2.33256e-05
-4.48937e-05
-6.74659e-05
-8.96416e-05
-0.000109648
-0.000125577
-0.000135764
-0.000139215
-0.000135927
-0.000126919
-0.000113928
-9.88985e-05
-8.3521e-05
-6.89806e-05
-5.5951e-05
-4.47159e-05
-3.53078e-05
-2.76119e-05
-2.14349e-05
-1.65522e-05
-1.27392e-05
-9.79053e-06
-7.52809e-06
-5.80289e-06
-4.49346e-06
-3.50276e-06
-2.75453e-06
-2.1896e-06
-1.76256e-06
-1.43883e-06
-1.19225e-06
-1.00316e-06
-8.5685e-07
-7.42348e-07
-6.51533e-07
-5.78387e-07
-5.18443e-07
-4.68369e-07
-4.25673e-07
-3.88505e-07
-3.55505e-07
-3.25688e-07
-2.98335e-07
-2.72912e-07
-2.49012e-07
-2.26325e-07
-2.0462e-07
-1.8373e-07
-1.63534e-07
-1.43932e-07
-1.2483e-07
-1.06126e-07
-8.77122e-08
-6.94919e-08
-5.14006e-08
-3.32854e-08
-1.65828e-08
8.22002e-05
8.21793e-05
8.21255e-05
8.20358e-05
8.19039e-05
8.17175e-05
8.14592e-05
8.11055e-05
8.06249e-05
7.99754e-05
7.9101e-05
7.7928e-05
7.63609e-05
7.4277e-05
7.15212e-05
6.79015e-05
6.31861e-05
5.7104e-05
4.93524e-05
3.9615e-05
2.75948e-05
1.30672e-05
-4.04475e-06
-2.35756e-05
-4.50157e-05
-6.74275e-05
-8.94238e-05
-0.000109254
-0.000125038
-0.00013514
-0.000138586
-0.000135374
-0.000126505
-0.000113683
-9.88232e-05
-8.35907e-05
-6.91603e-05
-5.62049e-05
-4.50129e-05
-3.56234e-05
-2.79278e-05
-2.17386e-05
-1.68356e-05
-1.29979e-05
-1.00228e-05
-7.734e-06
-5.9836e-06
-4.65084e-06
-3.63903e-06
-2.87201e-06
-2.29059e-06
-1.84922e-06
-1.51314e-06
-1.25601e-06
-1.05795e-06
-9.04056e-07
-7.83175e-07
-6.87016e-07
-6.09411e-07
-5.45761e-07
-4.92618e-07
-4.4739e-07
-4.0814e-07
-3.73435e-07
-3.42225e-07
-3.13738e-07
-2.87397e-07
-2.62758e-07
-2.39482e-07
-2.17312e-07
-1.96062e-07
-1.75594e-07
-1.55795e-07
-1.3656e-07
-1.17778e-07
-9.93302e-08
-8.10999e-08
-6.29595e-08
-4.44432e-08
-2.59574e-08
8.21251e-05
8.21021e-05
8.20428e-05
8.19444e-05
8.18006e-05
8.15987e-05
8.13209e-05
8.09432e-05
8.04338e-05
7.975e-05
7.88353e-05
7.76161e-05
7.59965e-05
7.38545e-05
7.10361e-05
6.73515e-05
6.25724e-05
5.6433e-05
4.8638e-05
3.88806e-05
2.68756e-05
1.24118e-05
-4.57495e-06
-2.39097e-05
-4.50805e-05
-6.71605e-05
-8.87894e-05
-0.000108261
-0.000123754
-0.000133687
-0.000137123
-0.000134064
-0.000125472
-0.000112992
-9.84742e-05
-8.35374e-05
-6.93353e-05
-5.6539e-05
-4.54457e-05
-3.61063e-05
-2.84245e-05
-2.22233e-05
-1.72917e-05
-1.34159e-05
-1.03981e-05
-8.06574e-06
-6.27317e-06
-4.90104e-06
-3.8534e-06
-3.05439e-06
-2.4448e-06
-1.9789e-06
-1.62164e-06
-1.34633e-06
-1.13276e-06
-9.6566e-07
-8.33574e-07
-7.27914e-07
-6.42257e-07
-5.71778e-07
-5.12837e-07
-4.62678e-07
-4.19223e-07
-3.80921e-07
-3.46621e-07
-3.15469e-07
-2.86819e-07
-2.60174e-07
-2.35148e-07
-2.1145e-07
-1.88862e-07
-1.67225e-07
-1.46406e-07
-1.26286e-07
-1.06741e-07
-8.76451e-08
-6.8882e-08
-5.03742e-08
-3.19912e-08
-1.53209e-08
8.20238e-05
8.19977e-05
8.19306e-05
8.18199e-05
8.16591e-05
8.14351e-05
8.11296e-05
8.07179e-05
8.01673e-05
7.94345e-05
7.84627e-05
7.71775e-05
7.54836e-05
7.32593e-05
7.03528e-05
6.65773e-05
6.17099e-05
5.54925e-05
4.76408e-05
3.78619e-05
2.58879e-05
1.15264e-05
-5.26849e-06
-2.43086e-05
-4.508e-05
-6.66721e-05
-8.77647e-05
-0.000106717
-0.000121789
-0.000131479
-0.000134903
-0.000132063
-0.000123872
-0.000111886
-9.78626e-05
-8.33578e-05
-6.94931e-05
-5.6936e-05
-4.59948e-05
-3.67371e-05
-2.90836e-05
-2.28728e-05
-1.79066e-05
-1.39814e-05
-1.0907e-05
-8.51613e-06
-6.66654e-06
-5.241e-06
-4.14475e-06
-3.30241e-06
-2.65483e-06
-2.15604e-06
-1.7706e-06
-1.47136e-06
-1.23761e-06
-1.05361e-06
-9.07441e-07
-7.90105e-07
-6.94808e-07
-6.16403e-07
-5.50973e-07
-4.95523e-07
-4.47774e-07
-4.06001e-07
-3.68908e-07
-3.35518e-07
-3.05084e-07
-2.77029e-07
-2.50901e-07
-2.26352e-07
-2.03121e-07
-1.81008e-07
-1.59854e-07
-1.39514e-07
-1.19847e-07
-1.00708e-07
-8.19519e-08
-6.34237e-08
-4.46266e-08
-2.59576e-08
8.18985e-05
8.18685e-05
8.17915e-05
8.16651e-05
8.14827e-05
8.12307e-05
8.08899e-05
8.04348e-05
7.98319e-05
7.90371e-05
7.79927e-05
7.66243e-05
7.48364e-05
7.25086e-05
6.94915e-05
6.56029e-05
6.06265e-05
5.43145e-05
4.63965e-05
3.65976e-05
2.46717e-05
1.04499e-05
-6.09128e-06
-2.47481e-05
-4.50059e-05
-6.59758e-05
-8.63895e-05
-0.000104688
-0.000119233
-0.000128621
-0.000132031
-0.000129466
-0.000121775
-0.000110406
-9.70067e-05
-8.30507e-05
-6.96194e-05
-5.73737e-05
-4.66346e-05
-3.74895e-05
-2.988e-05
-2.36638e-05
-1.86593e-05
-1.4676e-05
-1.15334e-05
-9.07095e-06
-7.15102e-06
-5.65923e-06
-4.50237e-06
-3.60579e-06
-2.91046e-06
-2.37018e-06
-1.94904e-06
-1.61933e-06
-1.35972e-06
-1.1539e-06
-9.89372e-07
-8.56634e-07
-7.48433e-07
-6.59222e-07
-5.84741e-07
-5.21706e-07
-4.6759e-07
-4.20458e-07
-3.7884e-07
-3.41613e-07
-3.07914e-07
-2.77069e-07
-2.48548e-07
-2.2194e-07
-1.96932e-07
-1.73282e-07
-1.50796e-07
-1.29303e-07
-1.08642e-07
-8.86548e-08
-6.91927e-08
-5.0152e-08
-3.13946e-08
-1.45888e-08
8.1752e-05
8.17173e-05
8.16286e-05
8.14835e-05
8.12754e-05
8.09901e-05
8.06075e-05
8.0101e-05
7.94361e-05
7.85679e-05
7.74378e-05
7.59711e-05
7.40726e-05
7.16237e-05
6.84777e-05
6.44579e-05
5.93565e-05
5.2938e-05
4.49485e-05
3.51344e-05
2.32747e-05
9.22787e-06
-7.00454e-06
-2.52024e-05
-4.48518e-05
-6.50916e-05
-8.47147e-05
-0.000102257
-0.000116196
-0.000125239
-0.000128634
-0.000126385
-0.000119266
-0.000108608
-9.5932e-05
-8.26183e-05
-6.97001e-05
-5.78284e-05
-4.73364e-05
-3.83333e-05
-3.07841e-05
-2.4569e-05
-1.95256e-05
-1.54787e-05
-1.22595e-05
-9.71554e-06
-7.71491e-06
-6.14672e-06
-4.91978e-06
-3.96043e-06
-3.20985e-06
-2.62162e-06
-2.15935e-06
-1.79469e-06
-1.50561e-06
-1.27511e-06
-1.09004e-06
-9.40285e-07
-8.18055e-07
-7.17327e-07
-6.33431e-07
-5.62731e-07
-5.024e-07
-4.50253e-07
-4.04603e-07
-3.64151e-07
-3.27889e-07
-2.95023e-07
-2.64926e-07
-2.37108e-07
-2.11185e-07
-1.8686e-07
-1.63894e-07
-1.42082e-07
-1.21232e-07
-1.01161e-07
-8.16882e-08
-6.26289e-08
-4.34878e-08
-2.47814e-08
8.15876e-05
8.15477e-05
8.14457e-05
8.12794e-05
8.10422e-05
8.07193e-05
8.02892e-05
7.97246e-05
7.89899e-05
7.80388e-05
7.68124e-05
7.52353e-05
7.32133e-05
7.06292e-05
6.73404e-05
6.31764e-05
5.79392e-05
5.14072e-05
4.33451e-05
3.35234e-05
2.17486e-05
7.90869e-06
-7.96856e-06
-2.56468e-05
-4.46154e-05
-6.40459e-05
-8.28001e-05
-9.95178e-05
-0.0001128
-0.000121471
-0.000124849
-0.00012294
-0.000116441
-0.000106554
-9.46706e-05
-8.20675e-05
-6.9724e-05
-5.8277e-05
-4.80707e-05
-3.92363e-05
-3.17641e-05
-2.55584e-05
-2.0478e-05
-1.6365e-05
-1.30637e-05
-1.04311e-05
-8.34189e-06
-6.68922e-06
-5.38439e-06
-4.35494e-06
-3.54243e-06
-2.90026e-06
-2.39154e-06
-1.98723e-06
-1.66457e-06
-1.40578e-06
-1.19699e-06
-1.02741e-06
-8.88657e-07
-7.74172e-07
-6.78829e-07
-5.98607e-07
-5.30347e-07
-4.71586e-07
-4.20403e-07
-3.75309e-07
-3.35136e-07
-2.98963e-07
-2.66061e-07
-2.35854e-07
-2.07887e-07
-1.81805e-07
-1.57322e-07
-1.34196e-07
-1.12207e-07
-9.11525e-08
-7.08438e-08
-5.11386e-08
-3.18605e-08
-1.46741e-08
8.14091e-05
8.13634e-05
8.12469e-05
8.10575e-05
8.07886e-05
8.04246e-05
7.99429e-05
7.93151e-05
7.85042e-05
7.74634e-05
7.61325e-05
7.44363e-05
7.22813e-05
6.95525e-05
6.61116e-05
6.17952e-05
5.64164e-05
4.97686e-05
4.16371e-05
3.18175e-05
2.01457e-05
6.53989e-06
-8.94579e-06
-2.60602e-05
-4.42989e-05
-6.28703e-05
-8.07102e-05
-9.65663e-05
-0.000109167
-0.000117452
-0.000120814
-0.000119256
-0.000113397
-0.000104313
-9.32601e-05
-8.14103e-05
-6.96838e-05
-5.86994e-05
-4.88098e-05
-4.01673e-05
-3.27879e-05
-2.66011e-05
-2.1488e-05
-1.73094e-05
-1.39238e-05
-1.11988e-05
-9.01607e-06
-7.27371e-06
-5.8858e-06
-4.78134e-06
-3.90246e-06
-3.20244e-06
-2.64392e-06
-2.19717e-06
-1.83865e-06
-1.54978e-06
-1.31591e-06
-1.12555e-06
-9.69631e-07
-8.41042e-07
-7.34155e-07
-6.4452e-07
-5.68618e-07
-5.03676e-07
-4.47515e-07
-3.98429e-07
-3.55072e-07
-3.16381e-07
-2.81506e-07
-2.49771e-07
-2.20641e-07
-1.9369e-07
-1.68577e-07
-1.45013e-07
-1.22742e-07
-1.0153e-07
-8.11528e-08
-6.13963e-08
-4.17845e-08
-2.30337e-08
8.12206e-05
8.11689e-05
8.1037e-05
8.08231e-05
8.05207e-05
8.01131e-05
7.95769e-05
7.88823e-05
7.79913e-05
7.68559e-05
7.54155e-05
7.35947e-05
7.1301e-05
6.8422e-05
6.48244e-05
6.03525e-05
5.48309e-05
4.80694e-05
3.98746e-05
3.00683e-05
1.85159e-05
5.16553e-06
-9.90328e-06
-2.64268e-05
-4.39097e-05
-6.16007e-05
-7.85114e-05
-9.34985e-05
-0.000105416
-0.000113317
-0.000116662
-0.000115451
-0.000110232
-0.000101954
-9.17421e-05
-8.06639e-05
-6.95774e-05
-5.90798e-05
-4.9529e-05
-4.10971e-05
-3.38247e-05
-2.76666e-05
-2.2527e-05
-1.82857e-05
-1.48165e-05
-1.19979e-05
-9.71957e-06
-7.8847e-06
-6.4106e-06
-5.22798e-06
-4.27964e-06
-3.51889e-06
-2.90792e-06
-2.41634e-06
-2.0198e-06
-1.69891e-06
-1.43823e-06
-1.22549e-06
-1.05097e-06
-9.06939e-07
-7.87263e-07
-6.87041e-07
-6.02375e-07
-5.30171e-07
-4.67983e-07
-4.13881e-07
-3.66336e-07