/*--------------------------------*- C++ -*----------------------------------*\
| =========                 |                                                 |
| \\      /  F ield         | OpenFOAM: The Open Source CFD Toolbox           |
|  \\    /   O peration     | Version:  2512                                  |
|   \\  /    A nd           | Website:  www.openfoam.com                      |
|    \\/     M anipulation  |                                                 |
\*---------------------------------------------------------------------------*/
FoamFile
{
    version     2.0;
    format      ascii;
    arch        "LSB;label=32;scalar=64";
    class       volScalarField;
    location    "200";
    object      omega;
}
// * * * * * * * * * * * * * * * * * * * * * * * * * * * * * * * * * * * * * //

dimensions      [0 0 -1 0 0 0 0];

internalField   nonuniform List<scalar> 
248793
(
8.07067
6.69608
5.69885
4.94658
4.36122
3.89414
3.51361
3.19816
2.93275
2.7066
2.51176
2.34227
2.19357
2.06213
1.94514
1.8404
1.7461
1.66077
1.58321
1.51243
1.44757
1.38795
1.33295
1.28206
1.23485
1.19093
1.14998
1.11171
1.07586
1.04222
1.01058
0.980786
0.952671
0.926101
0.900953
0.877116
0.854493
0.832992
0.812533
0.793043
0.774456
0.756709
0.739748
0.723523
0.707986
0.693096
0.678812
0.665099
0.651923
0.639255
0.627064
0.615325
0.604014
0.593107
0.582583
0.572424
0.562609
0.553122
0.543947
0.535069
0.526474
0.518148
0.51008
0.502256
0.494668
0.487303
0.480153
0.473208
0.46646
0.4599
0.453521
0.447315
0.441275
0.435395
0.429669
0.424091
0.418654
0.413354
0.408187
0.403221
8.07067
6.69608
5.69885
4.94658
4.36122
3.89414
3.51361
3.19816
2.93275
2.7066
2.51176
2.34227
2.19357
2.06213
1.94514
1.8404
1.7461
1.66077
1.58321
1.51243
1.44757
1.38795
1.33295
1.28206
1.23485
1.19093
1.14998
1.11171
1.07586
1.04222
1.01058
0.980787
0.952672
0.926102
0.900954
0.877118
0.854494
0.832993
0.812535
0.793045
0.774457
0.75671
0.73975
0.723524
0.707987
0.693097
0.678813
0.6651
0.651924
0.639256
0.627065
0.615326
0.604015
0.593108
0.582584
0.572424
0.562609
0.553123
0.543948
0.53507
0.526474
0.518149
0.51008
0.502257
0.494668
0.487304
0.480154
0.473209
0.466461
0.459901
0.453521
0.447315
0.441276
0.435396
0.42967
0.424091
0.418654
0.413355
0.408187
0.403221
8.07067
6.69608
5.69885
4.94658
4.36122
3.89414
3.51361
3.19816
2.93275
2.7066
2.51176
2.34227
2.19357
2.06213
1.94514
1.8404
1.7461
1.66077
1.58321
1.51243
1.44757
1.38795
1.33295
1.28206
1.23485
1.19093
1.14998
1.11171
1.07586
1.04222
1.01059
0.980788
0.952673
0.926103
0.900955
0.877119
0.854496
0.832995
0.812536
0.793046
0.774459
0.756712
0.739751
0.723526
0.707989
0.693098
0.678814
0.665101
0.651926
0.639257
0.627066
0.615328
0.604016
0.593109
0.582585
0.572425
0.562611
0.553124
0.543949
0.535071
0.526475
0.51815
0.510081
0.502258
0.494669
0.487305
0.480155
0.47321
0.466461
0.459901
0.453522
0.447316
0.441276
0.435396
0.42967
0.424092
0.418655
0.413355
0.408188
0.403222
8.07067
6.69608
5.69885
4.94658
4.36122
3.89414
3.51361
3.19816
2.93275
2.7066
2.51176
2.34227
2.19357
2.06213
1.94514
1.8404
1.7461
1.66077
1.58321
1.51243
1.44757
1.38795
1.33295
1.28206
1.23485
1.19093
1.14998
1.11171
1.07586
1.04222
1.01059
0.98079
0.952675
0.926105
0.900957
0.877121
0.854497
0.832997
0.812538
0.793048
0.774461
0.756714
0.739753
0.723528
0.707991
0.6931
0.678816
0.665103
0.651928
0.639259
0.627068
0.615329
0.604018
0.593111
0.582587
0.572427
0.562612
0.553125
0.54395
0.535072
0.526477
0.518151
0.510082
0.502259
0.49467
0.487306
0.480156
0.473211
0.466462
0.459902
0.453523
0.447317
0.441277
0.435397
0.429671
0.424092
0.418656
0.413356
0.408189
0.403223
8.07067
6.69608
5.69885
4.94658
4.36122
3.89414
3.51361
3.19816
2.93275
2.7066
2.51176
2.34227
2.19357
2.06213
1.94514
1.8404
1.7461
1.66077
1.58321
1.51243
1.44757
1.38795
1.33295
1.28206
1.23485
1.19093
1.14998
1.11171
1.07586
1.04222
1.01059
0.980791
0.952677
0.926107
0.900959
0.877123
0.8545
0.832999
0.81254
0.793051
0.774463
0.756716
0.739755
0.72353
0.707993
0.693102
0.678818
0.665105
0.651929
0.63926
0.62707
0.615331
0.604019
0.593112
0.582588
0.572428
0.562613
0.553126
0.543951
0.535073
0.526478
0.518152
0.510083
0.50226
0.494671
0.487307
0.480157
0.473212
0.466463
0.459903
0.453524
0.447318
0.441278
0.435398
0.429672
0.424093
0.418657
0.413357
0.40819
0.403223
8.07067
6.69608
5.69885
4.94658
4.36122
3.89414
3.51361
3.19816
2.93275
2.7066
2.51176
2.34227
2.19357
2.06213
1.94514
1.8404
1.74609
1.66077
1.58321
1.51243
1.44757
1.38795
1.33295
1.28206
1.23485
1.19093
1.14998
1.11171
1.07586
1.04222
1.01059
0.980793
0.952679
0.926109
0.900961
0.877125
0.854502
0.833001
0.812543
0.793053
0.774465
0.756718
0.739758
0.723532
0.707995
0.693104
0.67882
0.665107
0.651931
0.639262
0.627072
0.615333
0.604021
0.593114
0.58259
0.57243
0.562615
0.553128
0.543953
0.535075
0.526479
0.518153
0.510085
0.502261
0.494673
0.487308
0.480158
0.473213
0.466464
0.459904
0.453525
0.447319
0.441279
0.435399
0.429673
0.424094
0.418658
0.413358
0.408191
0.403224
8.07067
6.69608
5.69885
4.94658
4.36122
3.89414
3.51361
3.19816
2.93275
2.7066
2.51176
2.34227
2.19357
2.06213
1.94514
1.8404
1.74609
1.66077
1.58321
1.51243
1.44757
1.38795
1.33295
1.28206
1.23485
1.19093
1.14998
1.11171
1.07587
1.04222
1.01059
0.980795
0.952681
0.926111
0.900964
0.877128
0.854504
0.833004
0.812545
0.793056
0.774468
0.756721
0.73976
0.723534
0.707997
0.693106
0.678822
0.665109
0.651933
0.639264
0.627074
0.615335
0.604023
0.593116
0.582592
0.572432
0.562617
0.55313
0.543955
0.535076
0.526481
0.518155
0.510086
0.502263
0.494674
0.487309
0.480159
0.473214
0.466466
0.459906
0.453526
0.44732
0.44128
0.4354
0.429674
0.424095
0.418659
0.413359
0.408192
0.403225
8.07067
6.69608
5.69885
4.94658
4.36122
3.89414
3.51361
3.19816
2.93275
2.7066
2.51176
2.34227
2.19357
2.06213
1.94514
1.8404
1.74609
1.66077
1.58321
1.51243
1.44757
1.38795
1.33295
1.28206
1.23485
1.19094
1.14999
1.11171
1.07587
1.04223
1.01059
0.980797
0.952683
0.926114
0.900966
0.877131
0.854507
0.833007
0.812548
0.793058
0.77447
0.756724
0.739763
0.723537
0.708
0.693109
0.678825
0.665112
0.651936
0.639267
0.627076
0.615337
0.604025
0.593118
0.582594
0.572434
0.562618
0.553131
0.543956
0.535078
0.526483
0.518157
0.510088
0.502264
0.494676
0.487311
0.480161
0.473216
0.466467
0.459907
0.453527
0.447321
0.441282
0.435402
0.429675
0.424096
0.41866
0.41336
0.408193
0.403226
8.07067
6.69608
5.69885
4.94658
4.36122
3.89414
3.51361
3.19816
2.93275
2.7066
2.51176
2.34227
2.19357
2.06213
1.94514
1.8404
1.74609
1.66077
1.58321
1.51243
1.44757
1.38795
1.33295
1.28206
1.23485
1.19094
1.14999
1.11171
1.07587
1.04223
1.0106
0.980799
0.952686
0.926116
0.900969
0.877133
0.85451
0.83301
0.812551
0.793061
0.774473
0.756726
0.739765
0.72354
0.708003
0.693111
0.678827
0.665114
0.651938
0.639269
0.627078
0.615339
0.604027
0.59312
0.582596
0.572435
0.56262
0.553133
0.543958
0.53508
0.526484
0.518158
0.510089
0.502266
0.494677
0.487312
0.480162
0.473217
0.466468
0.459908
0.453529
0.447323
0.441283
0.435403
0.429676
0.424098
0.418661
0.413361
0.408194
0.403228
8.07067
6.69608
5.69885
4.94658
4.36122
3.89414
3.51361
3.19816
2.93275
2.7066
2.51176
2.34227
2.19357
2.06213
1.94514
1.8404
1.74609
1.66077
1.58321
1.51243
1.44757
1.38795
1.33295
1.28206
1.23485
1.19094
1.14999
1.11172
1.07587
1.04223
1.0106
0.980802
0.952688
0.926119
0.900972
0.877136
0.854513
0.833013
0.812554
0.793064
0.774476
0.756729
0.739768
0.723542
0.708005
0.693114
0.67883
0.665117
0.651941
0.639271
0.62708
0.615341
0.604029
0.593122
0.582598
0.572437
0.562622
0.553135
0.54396
0.535082
0.526486
0.51816
0.510091
0.502268
0.494679
0.487314
0.480164
0.473218
0.46647
0.45991
0.45353
0.447324
0.441284
0.435404
0.429678
0.424099
0.418662
0.413362
0.408195
0.403229
8.07067
6.69608
5.69885
4.94658
4.36122
3.89414
3.51361
3.19816
2.93275
2.7066
2.51176
2.34227
2.19357
2.06213
1.94514
1.8404
1.74609
1.66077
1.58321
1.51243
1.44757
1.38795
1.33295
1.28206
1.23485
1.19094
1.14999
1.11172
1.07587
1.04223
1.0106
0.980804
0.952691
0.926122
0.900975
0.877139
0.854516
0.833016
0.812557
0.793067
0.774479
0.756732
0.739771
0.723545
0.708008
0.693117
0.678833
0.665119
0.651943
0.639274
0.627083
0.615343
0.604031
0.593124
0.5826
0.57244
0.562624
0.553137
0.543962
0.535083
0.526488
0.518162
0.510093
0.502269
0.49468
0.487315
0.480165
0.47322
0.466471
0.459911
0.453532
0.447325
0.441285
0.435405
0.429679
0.4241
0.418663
0.413363
0.408196
0.40323
8.07067
6.69608
5.69885
4.94658
4.36122
3.89414
3.51361
3.19816
2.93275
2.7066
2.51176
2.34227
2.19357
2.06212
1.94514
1.8404
1.74609
1.66077
1.58321
1.51242
1.44757
1.38795
1.33295
1.28206
1.23485
1.19094
1.14999
1.11172
1.07587
1.04223
1.0106
0.980807
0.952693
0.926125
0.900978
0.877143
0.854519
0.833019
0.81256
0.79307
0.774482
0.756735
0.739774
0.723548
0.708011
0.69312
0.678835
0.665122
0.651946
0.639276
0.627085
0.615346
0.604034
0.593126
0.582602
0.572442
0.562626
0.553139
0.543964
0.535085
0.52649
0.518163
0.510094
0.502271
0.494682
0.487317
0.480167
0.473221
0.466473
0.459913
0.453533
0.447327
0.441287
0.435407
0.42968
0.424101
0.418665
0.413365
0.408197
0.403231
8.07067
6.69608
5.69885
4.94658
4.36122
3.89414
3.51361
3.19816
2.93275
2.7066
2.51176
2.34227
2.19357
2.06212
1.94514
1.8404
1.74609
1.66076
1.58321
1.51242
1.44757
1.38795
1.33295
1.28206
1.23485
1.19094
1.14999
1.11172
1.07587
1.04223
1.0106
0.980809
0.952696
0.926128
0.900981
0.877146
0.854522
0.833022
0.812563
0.793073
0.774485
0.756738
0.739777
0.723551
0.708014
0.693122
0.678838
0.665124
0.651948
0.639279
0.627087
0.615348
0.604036
0.593128
0.582604
0.572444
0.562628
0.553141
0.543966
0.535087
0.526491
0.518165
0.510096
0.502273
0.494683
0.487319
0.480168
0.473223
0.466474
0.459914
0.453534
0.447328
0.441288
0.435408
0.429681
0.424103
0.418666
0.413366
0.408198
0.403232
8.07067
6.69608
5.69885
4.94658
4.36122
3.89414
3.51361
3.19816
2.93275
2.7066
2.51176
2.34227
2.19357
2.06212
1.94514
1.84039
1.74609
1.66076
1.58321
1.51242
1.44757
1.38795
1.33295
1.28206
1.23485
1.19094
1.14999
1.11172
1.07588
1.04224
1.01061
0.980811
0.952699
0.92613
0.900984
0.877148
0.854525
0.833025
0.812566
0.793076
0.774488
0.756741
0.73978
0.723554
0.708016
0.693125
0.67884
0.665127
0.65195
0.639281
0.627089
0.61535
0.604038
0.59313
0.582606
0.572445
0.56263
0.553143
0.543967
0.535089
0.526493
0.518167
0.510098
0.502274
0.494685
0.48732
0.48017
0.473224
0.466476
0.459915
0.453536
0.447329
0.441289
0.435409
0.429683
0.424104
0.418667
0.413367
0.408199
0.403233
8.07067
6.69608
5.69885
4.94658
4.36122
3.89414
3.51361
3.19816
2.93275
2.7066
2.51176
2.34227
2.19357
2.06212
1.94514
1.84039
1.74609
1.66076
1.58321
1.51242
1.44757
1.38795
1.33295
1.28206
1.23485
1.19094
1.14999
1.11172
1.07588
1.04224
1.01061
0.980813
0.952701
0.926133
0.900986
0.877151
0.854528
0.833028
0.812569
0.793079
0.774491
0.756744
0.739782
0.723556
0.708019
0.693127
0.678843
0.665129
0.651952
0.639283
0.627091
0.615352
0.60404
0.593132
0.582608
0.572447
0.562632
0.553144
0.543969
0.53509
0.526494
0.518168
0.510099
0.502275
0.494686
0.487321
0.480171
0.473226
0.466477
0.459917
0.453537
0.44733
0.441291
0.43541
0.429684
0.424105
0.418668
0.413368
0.408201
0.403234
8.07067
6.69608
5.69885
4.94658
4.36122
3.89414
3.51361
3.19816
2.93275
2.7066
2.51176
2.34227
2.19357
2.06212
1.94514
1.84039
1.74609
1.66076
1.58321
1.51242
1.44757
1.38795
1.33295
1.28206
1.23485
1.19094
1.14999
1.11172
1.07588
1.04224
1.01061
0.980815
0.952703
0.926135
0.900989
0.877153
0.85453
0.83303
0.812571
0.793081
0.774493
0.756746
0.739785
0.723558
0.708021
0.693129
0.678845
0.665131
0.651954
0.639285
0.627093
0.615354
0.604041
0.593134
0.582609
0.572449
0.562633
0.553146
0.54397
0.535092
0.526496
0.51817
0.5101
0.502277
0.494688
0.487323
0.480172
0.473227
0.466478
0.459918
0.453538
0.447332
0.441292
0.435411
0.429685
0.424106
0.418669
0.413369
0.408201
0.403235
8.07067
6.69608
5.69885
4.94658
4.36122
3.89414
3.51361
3.19816
2.93275
2.7066
2.51176
2.34227
2.19357
2.06212
1.94514
1.84039
1.74609
1.66076
1.58321
1.51242
1.44757
1.38794
1.33295
1.28206
1.23485
1.19094
1.14999
1.11172
1.07588
1.04224
1.01061
0.980817
0.952705
0.926137
0.900991
0.877155
0.854532
0.833032
0.812574
0.793083
0.774495
0.756748
0.739786
0.72356
0.708022
0.693131
0.678846
0.665132
0.651956
0.639286
0.627095
0.615355
0.604043
0.593135
0.582611
0.57245
0.562635
0.553147
0.543971
0.535093
0.526497
0.518171
0.510101
0.502278
0.494689
0.487324
0.480173
0.473228
0.466479
0.459919
0.453539
0.447332
0.441292
0.435412
0.429686
0.424107
0.41867
0.41337
0.408202
0.403236
8.07067
6.69608
5.69885
4.94658
4.36122
3.89414
3.51361
3.19816
2.93275
2.7066
2.51176
2.34227
2.19357
2.06212
1.94514
1.84039
1.74609
1.66076
1.58321
1.51242
1.44757
1.38794
1.33295
1.28206
1.23485
1.19094
1.14999
1.11172
1.07588
1.04224
1.01061
0.980818
0.952706
0.926138
0.900992
0.877157
0.854534
0.833034
0.812575
0.793085
0.774497
0.756749
0.739788
0.723562
0.708024
0.693132
0.678848
0.665134
0.651957
0.639287
0.627096
0.615356
0.604044
0.593136
0.582612
0.572451
0.562636
0.553148
0.543972
0.535094
0.526498
0.518172
0.510102
0.502279
0.494689
0.487324
0.480174
0.473228
0.46648
0.459919
0.45354
0.447333
0.441293
0.435413
0.429686
0.424107
0.41867
0.41337
0.408203
0.403236
8.07067
6.69608
5.69885
4.94658
4.36122
3.89414
3.51361
3.19816
2.93275
2.7066
2.51176
2.34227
2.19357
2.06212
1.94514
1.84039
1.74609
1.66076
1.58321
1.51242
1.44757
1.38794
1.33295
1.28206
1.23485
1.19094
1.14999
1.11172
1.07588
1.04224
1.01061
0.980819
0.952707
0.926139
0.900993
0.877158
0.854535
0.833035
0.812576
0.793086
0.774498
0.756751
0.739789
0.723563
0.708025
0.693133
0.678849
0.665135
0.651958
0.639288
0.627097
0.615357
0.604045
0.593137
0.582613
0.572452
0.562636
0.553149
0.543973
0.535094
0.526498
0.518172
0.510103
0.502279
0.49469
0.487325
0.480174
0.473229
0.46648
0.45992
0.45354
0.447334
0.441294
0.435413
0.429687
0.424108
0.418671
0.413371
0.408203
0.403237
8.07067
6.69608
5.69885
4.94658
4.36122
3.89414
3.51361
3.19816
2.93275
2.7066
2.51176
2.34227
2.19357
2.06212
1.94514
1.84039
1.74609
1.66076
1.58321
1.51242
1.44757
1.38794
1.33295
1.28206
1.23485
1.19094
1.14999
1.11172
1.07588
1.04224
1.01061
0.98082
0.952708
0.92614
0.900994
0.877159
0.854536
0.833035
0.812577
0.793087
0.774498
0.756751
0.73979
0.723563
0.708025
0.693134
0.678849
0.665135
0.651959
0.639289
0.627097
0.615358
0.604045
0.593137
0.582613
0.572452
0.562637
0.553149
0.543973
0.535095
0.526499
0.518172
0.510103
0.502279
0.49469
0.487325
0.480175
0.473229
0.46648
0.45992
0.45354
0.447334
0.441294
0.435414
0.429687
0.424108
0.418671
0.413371
0.408203
0.403237
8.07067
6.69608
5.69885
4.94658
4.36122
3.89414
3.51361
3.19816
2.93275
2.7066
2.51176
2.34227
2.19357
2.06212
1.94514
1.84039
1.74609
1.66076
1.58321
1.51242
1.44757
1.38794
1.33295
1.28206
1.23485
1.19094
1.14999
1.11172
1.07588
1.04224
1.01061
0.98082
0.952707
0.92614
0.900994
0.877159
0.854536
0.833035
0.812577
0.793087
0.774498
0.756751
0.739789
0.723563
0.708025
0.693134
0.678849
0.665135
0.651958
0.639289
0.627097
0.615358
0.604045
0.593137
0.582613
0.572452
0.562637
0.553149
0.543973
0.535095
0.526499
0.518172
0.510103
0.502279
0.49469
0.487325
0.480175
0.473229
0.46648
0.45992
0.45354
0.447334
0.441294
0.435414
0.429687
0.424108
0.418671
0.413371
0.408203
0.403237
8.07067
6.69608
5.69885
4.94658
4.36122
3.89414
3.51361
3.19816
2.93275
2.7066
2.51176
2.34227
2.19357
2.06212
1.94514
1.84039
1.74609
1.66076
1.58321
1.51242
1.44757
1.38794
1.33295
1.28206
1.23485
1.19094
1.14999
1.11172
1.07588
1.04224
1.01061
0.980819
0.952707
0.926139
0.900993
0.877158
0.854535
0.833035
0.812576
0.793086
0.774498
0.75675
0.739789
0.723563
0.708025
0.693133
0.678848
0.665134
0.651958
0.639288
0.627097
0.615357
0.604045
0.593137
0.582613
0.572452
0.562636
0.553149
0.543973
0.535094
0.526498
0.518172
0.510103
0.502279
0.49469
0.487325
0.480174
0.473229
0.46648
0.45992
0.45354
0.447334
0.441293
0.435413
0.429687
0.424108
0.418671
0.413371
0.408203
0.403237
8.07067
6.69608
5.69885
4.94658
4.36122
3.89414
3.51361
3.19816
2.93275
2.7066
2.51176
2.34227
2.19357
2.06212
1.94514
1.84039
1.74609
1.66076
1.58321
1.51242
1.44757
1.38794
1.33295
1.28206
1.23485
1.19094
1.14999
1.11172
1.07588
1.04224
1.01061
0.980818
0.952706
0.926138
0.900992
0.877157
0.854534
0.833034
0.812575
0.793085
0.774497
0.756749
0.739788
0.723562
0.708024
0.693132
0.678847
0.665134
0.651957
0.639287
0.627096
0.615356
0.604044
0.593136
0.582612
0.572451
0.562635
0.553148
0.543972
0.535094
0.526498
0.518171
0.510102
0.502279
0.494689
0.487324
0.480174
0.473228
0.46648
0.459919
0.453539
0.447333
0.441293
0.435413
0.429686
0.424107
0.41867
0.41337
0.408203
0.403236
8.07067
6.69608
5.69885
4.94658
4.36122
3.89414
3.51361
3.19816
2.93275
2.7066
2.51176
2.34227
2.19357
2.06212
1.94514
1.84039
1.74609
1.66076
1.58321
1.51242
1.44757
1.38794
1.33295
1.28206
1.23485
1.19094
1.14999
1.11172
1.07588
1.04224
1.01061
0.980817
0.952705
0.926137
0.90099
0.877155
0.854532
0.833032
0.812573
0.793083
0.774495
0.756748
0.739786
0.72356
0.708022
0.693131
0.678846
0.665132
0.651956
0.639286
0.627095
0.615355
0.604043
0.593135
0.582611
0.57245
0.562634
0.553147
0.543971
0.535093
0.526497
0.518171
0.510101
0.502278
0.494689
0.487324
0.480173
0.473228
0.466479
0.459918
0.453539
0.447332
0.441292
0.435412
0.429685
0.424107
0.41867
0.413369
0.408202
0.403236
8.07067
6.69608
5.69885
4.94658
4.36122
3.89414
3.51361
3.19816
2.93275
2.7066
2.51176
2.34227
2.19357
2.06212
1.94514
1.84039
1.74609
1.66076
1.58321
1.51242
1.44757
1.38795
1.33295
1.28206
1.23485
1.19094
1.14999
1.11172
1.07588
1.04224
1.01061
0.980815
0.952703
0.926135
0.900989
0.877153
0.85453
0.83303
0.812571
0.793081
0.774493
0.756746
0.739784
0.723558
0.708021
0.693129
0.678844
0.665131
0.651954
0.639285
0.627093
0.615354
0.604041
0.593134
0.582609
0.572449
0.562633
0.553146
0.54397
0.535092
0.526496
0.518169
0.5101
0.502277
0.494687
0.487322
0.480172
0.473227
0.466478
0.459918
0.453538
0.447331
0.441291
0.435411
0.429685
0.424106
0.418669
0.413369
0.408201
0.403235
8.07067
6.69608
5.69885
4.94658
4.36122
3.89414
3.51361
3.19816
2.93275
2.7066
2.51176
2.34227
2.19357
2.06212
1.94514
1.84039
1.74609
1.66076
1.58321
1.51242
1.44757
1.38795
1.33295
1.28206
1.23485
1.19094
1.14999
1.11172
1.07588
1.04224
1.01061
0.980814
0.952701
0.926133
0.900986
0.877151
0.854528
0.833028
0.812569
0.793079
0.774491
0.756744
0.739782
0.723556
0.708018
0.693127
0.678842
0.665129
0.651952
0.639283
0.627091
0.615352
0.60404
0.593132
0.582608
0.572447
0.562632
0.553144
0.543969
0.53509
0.526494
0.518168
0.510099
0.502275
0.494686
0.487321
0.480171
0.473225
0.466477
0.459916
0.453537
0.44733
0.44129
0.43541
0.429684
0.424105
0.418668
0.413368
0.4082
0.403234
8.07067
6.69608
5.69885
4.94658
4.36122
3.89414
3.51361
3.19816
2.93275
2.7066
2.51176
2.34227
2.19357
2.06212
1.94514
1.8404
1.74609
1.66076
1.58321
1.51242
1.44757
1.38795
1.33295
1.28206
1.23485
1.19094
1.14999
1.11172
1.07588
1.04224
1.01061
0.980812
0.952699
0.926131
0.900984
0.877149
0.854525
0.833025
0.812566
0.793076
0.774488
0.756741
0.73978
0.723554
0.708016
0.693125
0.67884
0.665126
0.65195
0.639281
0.627089
0.61535
0.604038
0.59313
0.582606
0.572445
0.56263
0.553143
0.543967
0.535089
0.526493
0.518167
0.510098
0.502274
0.494685
0.48732
0.480169
0.473224
0.466476
0.459915
0.453536
0.447329
0.441289
0.435409
0.429683
0.424104
0.418667
0.413367
0.408199
0.403233
8.07067
6.69608
5.69885
4.94658
4.36122
3.89414
3.51361
3.19816
2.93275
2.7066
2.51176
2.34227
2.19357
2.06212
1.94514
1.8404
1.74609
1.66076
1.58321
1.51242
1.44757
1.38795
1.33295
1.28206
1.23485
1.19094
1.14999
1.11172
1.07587
1.04224
1.0106
0.980809
0.952696
0.926128
0.900981
0.877146
0.854522
0.833022
0.812563
0.793073
0.774485
0.756738
0.739777
0.723551
0.708013
0.693122
0.678838
0.665124
0.651948
0.639278
0.627087
0.615348
0.604036
0.593128
0.582604
0.572443
0.562628
0.553141
0.543965
0.535087
0.526491
0.518165
0.510096
0.502272
0.494683
0.487318
0.480168
0.473223
0.466474
0.459914
0.453534
0.447328
0.441288
0.435408
0.429681
0.424103
0.418666
0.413366
0.408198
0.403232
8.07067
6.69608
5.69885
4.94658
4.36122
3.89414
3.51361
3.19816
2.93275
2.7066
2.51176
2.34227
2.19357
2.06212
1.94514
1.8404
1.74609
1.66077
1.58321
1.51242
1.44757
1.38795
1.33295
1.28206
1.23485
1.19094
1.14999
1.11172
1.07587
1.04223
1.0106
0.980807
0.952694
0.926125
0.900978
0.877143
0.854519
0.833019
0.81256
0.79307
0.774482
0.756735
0.739774
0.723548
0.708011
0.69312
0.678835
0.665122
0.651945
0.639276
0.627085
0.615346
0.604034
0.593126
0.582602
0.572442
0.562626
0.553139
0.543964
0.535085
0.526489
0.518163
0.510094
0.502271
0.494682
0.487317
0.480167
0.473221
0.466473
0.459913
0.453533
0.447327
0.441287
0.435407
0.42968
0.424101
0.418665
0.413364
0.408197
0.403231
8.07067
6.69608
5.69885
4.94658
4.36122
3.89414
3.51361
3.19816
2.93275
2.7066
2.51176
2.34227
2.19357
2.06213
1.94514
1.8404
1.74609
1.66077
1.58321
1.51243
1.44757
1.38795
1.33295
1.28206
1.23485
1.19094
1.14999
1.11172
1.07587
1.04223
1.0106
0.980805
0.952691
0.926122
0.900975
0.87714
0.854516
0.833016
0.812557
0.793067
0.774479
0.756732
0.739771
0.723545
0.708008
0.693117
0.678833
0.665119
0.651943
0.639274
0.627083
0.615343
0.604031
0.593124
0.5826
0.57244
0.562624
0.553137
0.543962
0.535083
0.526488
0.518162
0.510093
0.502269
0.49468
0.487315
0.480165
0.47322
0.466471
0.459911
0.453532
0.447325
0.441285
0.435405
0.429679
0.4241
0.418663
0.413363
0.408196
0.40323
8.07067
6.69608
5.69885
4.94658
4.36122
3.89414
3.51361
3.19816
2.93275
2.7066
2.51176
2.34227
2.19357
2.06213
1.94514
1.8404
1.74609
1.66077
1.58321
1.51243
1.44757
1.38795
1.33295
1.28206
1.23485
1.19094
1.14999
1.11172
1.07587
1.04223
1.0106
0.980802
0.952689
0.92612
0.900973
0.877137
0.854513
0.833013
0.812554
0.793064
0.774476
0.756729
0.739768
0.723543
0.708005
0.693114
0.67883
0.665117
0.651941
0.639271
0.62708
0.615341
0.604029
0.593122
0.582598
0.572438
0.562622
0.553135
0.54396
0.535082
0.526486
0.51816
0.510091
0.502268
0.494679
0.487314
0.480164
0.473218
0.46647
0.45991
0.45353
0.447324
0.441284
0.435404
0.429678
0.424099
0.418662
0.413362
0.408195
0.403229
8.07067
6.69608
5.69885
4.94658
4.36122
3.89414
3.51361
3.19816
2.93275
2.7066
2.51176
2.34227
2.19357
2.06213
1.94514
1.8404
1.74609
1.66077
1.58321
1.51243
1.44757
1.38795
1.33295
1.28206
1.23485
1.19094
1.14999
1.11171
1.07587
1.04223
1.0106
0.9808
0.952686
0.926117
0.90097
0.877134
0.854511
0.83301
0.812551
0.793061
0.774473
0.756727
0.739766
0.72354
0.708003
0.693112
0.678827
0.665114
0.651938
0.639269
0.627078
0.615339
0.604027
0.59312
0.582596
0.572436
0.56262
0.553133
0.543958
0.53508
0.526484
0.518158
0.510089
0.502266
0.494677
0.487312
0.480162
0.473217
0.466468
0.459908
0.453529
0.447323
0.441283
0.435403
0.429676
0.424098
0.418661
0.413361
0.408194
0.403228
8.07067
6.69608
5.69885
4.94658
4.36122
3.89414
3.51361
3.19816
2.93275
2.7066
2.51176
2.34227
2.19357
2.06213
1.94514
1.8404
1.74609
1.66077
1.58321
1.51243
1.44757
1.38795
1.33295
1.28206
1.23485
1.19094
1.14999
1.11171
1.07587
1.04223
1.01059
0.980798
0.952684
0.926115
0.900967
0.877131
0.854508
0.833007
0.812549
0.793059
0.774471
0.756724
0.739763
0.723537
0.708
0.693109
0.678825
0.665112
0.651936
0.639267
0.627076
0.615337
0.604025
0.593118
0.582594
0.572434
0.562619
0.553132
0.543956
0.535078
0.526483
0.518157
0.510088
0.502264
0.494676
0.487311
0.480161
0.473216
0.466467
0.459907
0.453528
0.447321
0.441282
0.435402
0.429675
0.424096
0.41866
0.41336
0.408193
0.403226
8.07067
6.69608
5.69885
4.94658
4.36122
3.89414
3.51361
3.19816
2.93275
2.7066
2.51176
2.34227
2.19357
2.06213
1.94514
1.8404
1.74609
1.66077
1.58321
1.51243
1.44757
1.38795
1.33295
1.28206
1.23485
1.19094
1.14998
1.11171
1.07587
1.04222
1.01059
0.980796
0.952682
0.926112
0.900965
0.877129
0.854505
0.833005
0.812546
0.793056
0.774468
0.756721
0.73976
0.723535
0.707998
0.693107
0.678823
0.665109
0.651934
0.639265
0.627074
0.615335
0.604023
0.593116
0.582592
0.572432
0.562617
0.55313
0.543955
0.535076
0.526481
0.518155
0.510086
0.502263
0.494674
0.48731
0.480159
0.473214
0.466466
0.459906
0.453526
0.44732
0.44128
0.4354
0.429674
0.424095
0.418659
0.413359
0.408192
0.403225
8.07067
6.69608
5.69885
4.94658
4.36122
3.89414
3.51361
3.19816
2.93275
2.7066
2.51176
2.34227
2.19357
2.06213
1.94514
1.8404
1.7461
1.66077
1.58321
1.51243
1.44757
1.38795
1.33295
1.28206
1.23485
1.19093
1.14998
1.11171
1.07586
1.04222
1.01059
0.980794
0.95268
0.92611
0.900962
0.877126
0.854503
0.833002
0.812543
0.793053
0.774466
0.756719
0.739758
0.723532
0.707995
0.693105
0.678821
0.665107
0.651932
0.639263
0.627072
0.615333
0.604021
0.593114
0.58259
0.57243
0.562615
0.553128
0.543953
0.535075
0.52648
0.518154
0.510085
0.502262
0.494673
0.487308
0.480158
0.473213
0.466465
0.459905
0.453525
0.447319
0.441279
0.435399
0.429673
0.424094
0.418658
0.413358
0.408191
0.403224
8.07067
6.69608
5.69885
4.94658
4.36122
3.89414
3.51361
3.19816
2.93275
2.7066
2.51176
2.34227
2.19357
2.06213
1.94514
1.8404
1.7461
1.66077
1.58321
1.51243
1.44757
1.38795
1.33295
1.28206
1.23485
1.19093
1.14998
1.11171
1.07586
1.04222
1.01059
0.980792
0.952678
0.926108
0.90096
0.877124
0.8545
0.833
0.812541
0.793051
0.774463
0.756717
0.739756
0.72353
0.707993
0.693102
0.678818
0.665105
0.65193
0.639261
0.62707
0.615331
0.604019
0.593112
0.582589
0.572429
0.562614
0.553127
0.543952
0.535074
0.526478
0.518152
0.510084
0.50226
0.494672
0.487307
0.480157
0.473212
0.466463
0.459903
0.453524
0.447318
0.441278
0.435398
0.429672
0.424093
0.418657
0.413357
0.40819
0.403224
8.07067
6.69608
5.69885
4.94658
4.36122
3.89414
3.51361
3.19816
2.93275
2.7066
2.51176
2.34227
2.19357
2.06213
1.94514
1.8404
1.7461
1.66077
1.58321
1.51243
1.44757
1.38795
1.33295
1.28206
1.23485
1.19093
1.14998
1.11171
1.07586
1.04222
1.01059
0.980791
0.952676
0.926106
0.900958
0.877122
0.854498
0.832998
0.812539
0.793049
0.774461
0.756715
0.739754
0.723528
0.707991
0.6931
0.678817
0.665104
0.651928
0.639259
0.627068
0.615329
0.604018
0.593111
0.582587
0.572427
0.562612
0.553125
0.54395
0.535072
0.526477
0.518151
0.510082
0.502259
0.49467
0.487306
0.480156
0.473211
0.466462
0.459902
0.453523
0.447317
0.441277
0.435397
0.429671
0.424092
0.418656
0.413356
0.408189
0.403223
8.07067
6.69608
5.69885
4.94658
4.36122
3.89414
3.51361
3.19816
2.93275
2.7066
2.51176
2.34227
2.19357
2.06213
1.94514
1.8404
1.7461
1.66077
1.58321
1.51243
1.44757
1.38795
1.33295
1.28206
1.23485
1.19093
1.14998
1.11171
1.07586
1.04222
1.01059
0.980789
0.952674
0.926104
0.900956
0.87712
0.854496
0.832996
0.812537
0.793047
0.774459
0.756713
0.739752
0.723526
0.707989
0.693099
0.678815
0.665102
0.651926
0.639257
0.627067
0.615328
0.604016
0.593109
0.582586
0.572426
0.562611
0.553124
0.543949
0.535071
0.526476
0.51815
0.510081
0.502258
0.494669
0.487305
0.480155
0.47321
0.466461
0.459901
0.453522
0.447316
0.441276
0.435397
0.42967
0.424092
0.418655
0.413355
0.408188
0.403222
8.07067
6.69608
5.69885
4.94658
4.36122
3.89414
3.51361
3.19816
2.93275
2.7066
2.51176
2.34227
2.19357
2.06213
1.94514
1.8404
1.7461
1.66077
1.58321
1.51243
1.44757
1.38795
1.33295
1.28206
1.23485
1.19093
1.14998
1.11171
1.07586
1.04222
1.01058
0.980788
0.952673
0.926103
0.900955
0.877118
0.854495
0.832994
0.812535
0.793045
0.774458
0.756711
0.73975
0.723525
0.707988
0.693097
0.678813
0.6651
0.651925
0.639256
0.627065
0.615327
0.604015
0.593108
0.582585
0.572425
0.56261
0.553123
0.543948
0.53507
0.526475
0.518149
0.51008
0.502257
0.494669
0.487304
0.480154
0.473209
0.466461
0.459901
0.453521
0.447315
0.441276
0.435396
0.42967
0.424091
0.418655
0.413355
0.408188
0.403222
8.07067
6.69608
5.69885
4.94658
4.36122
3.89414
3.51361
3.19816
2.93275
2.7066
2.51176
2.34227
2.19357
2.06213
1.94514
1.8404
1.7461
1.66077
1.58321
1.51243
1.44757
1.38795
1.33295
1.28206
1.23485
1.19093
1.14998
1.11171
1.07586
1.04222
1.01058
0.980787
0.952672
0.926102
0.900954
0.877117
0.854494
0.832993
0.812534
0.793044
0.774456
0.75671
0.739749
0.723524
0.707987
0.693096
0.678812
0.665099
0.651924
0.639255
0.627065
0.615326
0.604014
0.593107
0.582584
0.572424
0.562609
0.553122
0.543947
0.535069
0.526474
0.518148
0.51008
0.502257
0.494668
0.487304
0.480153
0.473209
0.46646
0.4599
0.453521
0.447315
0.441275
0.435396
0.429669
0.424091
0.418654
0.413354
0.408187
0.403221
8.07067
6.69608
5.69885
4.94658
4.36122
3.89414
3.51361
3.19816
2.93275
2.7066
2.51176
2.34227
2.19357
2.06213
1.94514
1.8404
1.7461
1.66077
1.58321
1.51243
1.44757
1.38795
1.33295
1.28206
1.23485
1.19093
1.14998
1.11171
1.07586
1.04222
1.01058
0.980787
0.952672
0.926102
0.900954
0.877118
0.854494
0.832993
0.812535
0.793045
0.774457
0.75671
0.73975
0.723524
0.707987
0.693097
0.678813
0.6651
0.651924
0.639256
0.627065
0.615326
0.604015
0.593108
0.582584
0.572424
0.562609
0.553123
0.543948
0.53507
0.526474
0.518149
0.51008
0.502257
0.494668
0.487304
0.480154
0.473209
0.466461
0.459901
0.453521
0.447315
0.441276
0.435396
0.42967
0.424091
0.418654
0.413355
0.408187
0.403221
8.07067
6.69608
5.69885
4.94658
4.36122
3.89414
3.51361
3.19816
2.93275
2.7066
2.51176
2.34227
2.19357
2.06213
1.94514
1.8404
1.7461
1.66077
1.58321
1.51243
1.44757
1.38795
1.33295
1.28206
1.23485
1.19093
1.14998
1.11171
1.07586
1.04222
1.01058
0.980788
0.952673
0.926103
0.900955
0.877119
0.854495
0.832995
0.812536
0.793046
0.774458
0.756712
0.739751
0.723525
0.707989
0.693098
0.678814
0.665101
0.651926
0.639257
0.627066
0.615327
0.604016
0.593109
0.582585
0.572425
0.56261
0.553123
0.543948
0.53507
0.526475
0.518149
0.510081
0.502258
0.494669
0.487304
0.480154
0.473209
0.466461
0.459901
0.453522
0.447316
0.441276
0.435396
0.42967
0.424091
0.418655
0.413355
0.408188
0.403222
8.07067
6.69608
5.69885
4.94658
4.36122
3.89414
3.51361
3.19816
2.93275
2.7066
2.51176
2.34227
2.19357
2.06213
1.94514
1.8404
1.7461
1.66077
1.58321
1.51243
1.44757
1.38795
1.33295
1.28206
1.23485
1.19093
1.14998
1.11171
1.07586
1.04222
1.01059
0.98079
0.952675
0.926105
0.900957
0.877121
0.854497
0.832997
0.812538
0.793048
0.77446
0.756714
0.739753
0.723527
0.70799
0.6931
0.678816
0.665103
0.651927
0.639258
0.627068
0.615329
0.604017
0.59311
0.582586
0.572426
0.562611
0.553125