/*--------------------------------*- C++ -*----------------------------------*\
| =========                 |                                                 |
| \\      /  F ield         | OpenFOAM: The Open Source CFD Toolbox           |
|  \\    /   O peration     | Version:  2512                                  |
|   \\  /    A nd           | Website:  www.openfoam.com                      |
|    \\/     M anipulation  |                                                 |
\*---------------------------------------------------------------------------*/
FoamFile
{
    version     2.0;
    format      ascii;
    arch        "LSB;label=32;scalar=64";
    class       volScalarField;
    location    "200";
    object      p;
}
// * * * * * * * * * * * * * * * * * * * * * * * * * * * * * * * * * * * * * //

dimensions      [0 2 -2 0 0 0 0];

internalField   nonuniform List<scalar> 
248793
(
6.03611e-06
6.03183e-06
6.02058e-06
6.00251e-06
5.97729e-06
5.94386e-06
5.90078e-06
5.84631e-06
5.77835e-06
5.69443e-06
5.59165e-06
5.46668e-06
5.3158e-06
5.13496e-06
4.91987e-06
4.66622e-06
4.36989e-06
4.02733e-06
3.63604e-06
3.1951e-06
2.70578e-06
2.17221e-06
1.60187e-06
1.00597e-06
3.99414e-07
-1.99646e-07
-7.70891e-07
-1.29343e-06
-1.74782e-06
-2.11822e-06
-2.39424e-06
-2.57213e-06
-2.65501e-06
-2.65198e-06
-2.57661e-06
-2.44484e-06
-2.27308e-06
-2.07662e-06
-1.86866e-06
-1.65977e-06
-1.45789e-06
-1.26846e-06
-1.09486e-06
-9.38761e-07
-8.00579e-07
-6.79827e-07
-5.75432e-07
-4.85976e-07
-4.09881e-07
-3.45534e-07
-2.91381e-07
-2.45972e-07
-2.07997e-07
-1.76293e-07
-1.49847e-07
-1.27787e-07
-1.09368e-07
-9.3966e-08
-8.10542e-08
-7.01956e-08
-6.10279e-08
-5.3252e-08
-4.66221e-08
-4.09362e-08
-3.6029e-08
-3.1765e-08
-2.80332e-08
-2.47422e-08
-2.18169e-08
-1.91949e-08
-1.68239e-08
-1.46601e-08
-1.26659e-08
-1.08093e-08
-9.063e-09
-7.40346e-09
-5.81048e-09
-4.26884e-09
-2.74367e-09
-1.39856e-09
6.03742e-06
6.03316e-06
6.02203e-06
6.00413e-06
5.97915e-06
5.94603e-06
5.90333e-06
5.84932e-06
5.78193e-06
5.69866e-06
5.59661e-06
5.47246e-06
5.32248e-06
5.14258e-06
4.92844e-06
4.67567e-06
4.38009e-06
4.03804e-06
3.6469e-06
3.2056e-06
2.71529e-06
2.17998e-06
1.60709e-06
1.00782e-06
3.97225e-07
-2.06331e-07
-7.82166e-07
-1.30895e-06
-1.76677e-06
-2.13941e-06
-2.41623e-06
-2.59345e-06
-2.67434e-06
-2.6684e-06
-2.58957e-06
-2.45422e-06
-2.2791e-06
-2.07972e-06
-1.86938e-06
-1.6587e-06
-1.45554e-06
-1.26532e-06
-1.09129e-06
-9.35048e-07
-7.9693e-07
-6.7638e-07
-5.72269e-07
-4.83138e-07
-4.0738e-07
-3.43363e-07
-2.89518e-07
-2.4439e-07
-2.06664e-07
-1.75178e-07
-1.4892e-07
-1.27019e-07
-1.08736e-07
-9.34461e-08
-8.06281e-08
-6.98471e-08
-6.07433e-08
-5.30197e-08
-4.64326e-08
-4.07815e-08
-3.59027e-08
-3.16618e-08
-2.79488e-08
-2.46732e-08
-2.17605e-08
-1.91488e-08
-1.67866e-08
-1.46301e-08
-1.26422e-08
-1.0791e-08
-9.0492e-09
-7.39342e-09
-5.80341e-09
-4.26366e-09
-2.74173e-09
-1.38875e-09
6.03996e-06
6.03579e-06
6.02487e-06
6.00731e-06
5.9828e-06
5.95028e-06
5.90834e-06
5.85525e-06
5.78895e-06
5.70696e-06
5.60637e-06
5.48384e-06
5.33563e-06
5.15759e-06
4.94532e-06
4.69432e-06
4.40024e-06
4.05922e-06
3.66839e-06
3.22642e-06
2.73419e-06
2.19548e-06
1.61755e-06
1.01165e-06
3.93038e-07
-2.19444e-07
-8.04407e-07
-1.33964e-06
-1.80433e-06
-2.18144e-06
-2.45987e-06
-2.63575e-06
-2.71272e-06
-2.70095e-06
-2.61525e-06
-2.4728e-06
-2.29101e-06
-2.08584e-06
-1.8708e-06
-1.65655e-06
-1.4509e-06
-1.25909e-06
-1.08422e-06
-9.277e-07
-7.89712e-07
-6.69561e-07
-5.66012e-07
-4.77526e-07
-4.02436e-07
-3.39069e-07
-2.85834e-07
-2.4126e-07
-2.04027e-07
-1.72972e-07
-1.47085e-07
-1.255e-07
-1.07484e-07
-9.24177e-08
-7.97855e-08
-6.9158e-08
-6.01806e-08
-5.25607e-08
-4.60582e-08
-4.04762e-08
-3.56536e-08
-3.14585e-08
-2.77828e-08
-2.45377e-08
-2.165e-08
-1.90591e-08
-1.67141e-08
-1.45721e-08
-1.25966e-08
-1.0756e-08
-9.02323e-09
-7.37495e-09
-5.79089e-09
-4.25536e-09
-2.73654e-09
-1.381e-09
6.0437e-06
6.03965e-06
6.02905e-06
6.01199e-06
5.98817e-06
5.95655e-06
5.91572e-06
5.864e-06
5.79931e-06
5.7192e-06
5.62076e-06
5.50065e-06
5.35506e-06
5.17979e-06
4.97031e-06
4.72195e-06
4.43012e-06
4.09067e-06
3.70036e-06
3.25745e-06
2.76243e-06
2.2187e-06
1.63333e-06
1.01758e-06
3.87012e-07
-2.38811e-07
-8.37449e-07
-1.38537e-06
-1.86036e-06
-2.24419e-06
-2.525e-06
-2.69883e-06
-2.76987e-06
-2.74932e-06
-2.65329e-06
-2.50021e-06
-2.30847e-06
-2.09469e-06
-1.87269e-06
-1.65318e-06
-1.44386e-06
-1.24975e-06
-1.07367e-06
-9.16772e-07
-7.79e-07
-6.59459e-07
-5.56757e-07
-4.69233e-07
-3.95136e-07
-3.32736e-07
-2.80404e-07
-2.3665e-07
-2.00145e-07
-1.69726e-07
-1.44386e-07
-1.23268e-07
-1.05644e-07
-9.09068e-08
-7.85478e-08
-6.81462e-08
-5.93545e-08
-5.18869e-08
-4.55088e-08
-4.00283e-08
-3.52883e-08
-3.11603e-08
-2.75393e-08
-2.43389e-08
-2.14879e-08
-1.89272e-08
-1.66075e-08
-1.44868e-08
-1.25293e-08
-1.07042e-08
-8.9846e-09
-7.34736e-09
-5.77212e-09
-4.24308e-09
-2.7289e-09
-1.37432e-09
6.04854e-06
6.04465e-06
6.03446e-06
6.01806e-06
5.99513e-06
5.96467e-06
5.92529e-06
5.87533e-06
5.81275e-06
5.73509e-06
5.63947e-06
5.5225e-06
5.38034e-06
5.2087e-06
5.00289e-06
4.75802e-06
4.4692e-06
4.13187e-06
3.74232e-06
3.29829e-06
2.7997e-06
2.24949e-06
1.65443e-06
1.02575e-06
3.79444e-07
-2.64022e-07
-8.80799e-07
-1.44558e-06
-1.93428e-06
-2.32703e-06
-2.61098e-06
-2.78201e-06
-2.84506e-06
-2.81277e-06
-2.70299e-06
-2.53583e-06
-2.33097e-06
-2.10588e-06
-1.8748e-06
-1.64848e-06
-1.43443e-06
-1.23736e-06
-1.05976e-06
-9.02427e-07
-7.64979e-07
-6.46267e-07
-5.44691e-07
-4.58438e-07
-3.85645e-07
-3.24509e-07
-2.73356e-07
-2.30671e-07
-1.95114e-07
-1.65521e-07
-1.40892e-07
-1.20378e-07
-1.03264e-07
-8.89523e-08
-7.69471e-08
-6.68379e-08
-5.82866e-08
-5.1016e-08
-4.47988e-08
-3.94494e-08
-3.48162e-08
-3.07751e-08
-2.72249e-08
-2.40822e-08
-2.12786e-08
-1.8757e-08
-1.64698e-08
-1.43765e-08
-1.24424e-08
-1.06373e-08
-8.93479e-09
-7.31189e-09
-5.74819e-09
-4.22782e-09
-2.7199e-09
-1.36877e-09
6.05437e-06
6.05066e-06
6.04097e-06
6.02536e-06
6.00351e-06
5.97445e-06
5.93683e-06
5.889e-06
5.82896e-06
5.75428e-06
5.66207e-06
5.54893e-06
5.41097e-06
5.24376e-06
5.04247e-06
4.80191e-06
4.51684e-06
4.18221e-06
3.79374e-06
3.3485e-06
2.84571e-06
2.28772e-06
1.68088e-06
1.03639e-06
3.70733e-07
-2.94537e-07
-9.33823e-07
-1.51959e-06
-2.02538e-06
-2.42925e-06
-2.71704e-06
-2.88447e-06
-2.93744e-06
-2.89044e-06
-2.76353e-06
-2.57891e-06
-2.3579e-06
-2.11898e-06
-1.87684e-06
-1.64228e-06
-1.42257e-06
-1.22201e-06
-1.04265e-06
-8.84861e-07
-7.4787e-07
-6.30212e-07
-5.30039e-07
-4.45351e-07
-3.74156e-07
-3.14563e-07
-2.64844e-07
-2.23456e-07
-1.89048e-07
-1.60454e-07
-1.36684e-07
-1.169e-07
-1.004e-07
-8.66021e-08
-7.50232e-08
-6.52659e-08
-5.70039e-08
-4.99702e-08
-4.39465e-08
-3.87547e-08
-3.42497e-08
-3.03129e-08
-2.68475e-08
-2.37741e-08
-2.10273e-08
-1.85526e-08
-1.63044e-08
-1.4244e-08
-1.23378e-08
-1.05566e-08
-8.87468e-09
-7.26901e-09
-5.71928e-09
-4.20955e-09
-2.70944e-09
-1.36367e-09
6.06103e-06
6.05754e-06
6.04842e-06
6.03372e-06
6.01312e-06
5.98567e-06
5.95006e-06
5.90469e-06
5.84758e-06
5.77634e-06
5.68807e-06
5.57938e-06
5.44628e-06
5.28425e-06
5.08825e-06
4.85279e-06
4.57219e-06
4.24087e-06
3.85383e-06
3.40738e-06
2.89993e-06
2.33306e-06
1.71262e-06
1.04971e-06
3.61321e-07
-3.297e-07
-9.95698e-07
-1.60646e-06
-2.13263e-06
-2.54974e-06
-2.84204e-06
-3.00503e-06
-3.0458e-06
-2.98113e-06
-2.83378e-06
-2.62848e-06
-2.38847e-06
-2.13341e-06
-1.87847e-06
-1.63445e-06
-1.40829e-06
-1.20383e-06
-1.02256e-06
-8.64345e-07
-7.2797e-07
-6.11598e-07
-5.13095e-07
-4.3025e-07
-3.60922e-07
-3.03124e-07
-2.55068e-07
-2.15178e-07
-1.82094e-07
-1.54652e-07
-1.31869e-07
-1.12922e-07
-9.7127e-08
-8.39172e-08
-7.28263e-08
-6.34716e-08
-5.55405e-08
-4.87775e-08
-4.29748e-08
-3.79631e-08
-3.36045e-08
-2.97867e-08
-2.64182e-08
-2.34239e-08
-2.07417e-08
-1.83205e-08
-1.61168e-08
-1.40938e-08
-1.22195e-08
-1.04657e-08
-8.8071e-09
-7.22118e-09
-5.68749e-09
-4.1901e-09
-2.69902e-09
-1.3597e-09
6.06837e-06
6.06512e-06
6.05663e-06
6.04293e-06
6.0237e-06
5.99803e-06
5.96466e-06
5.92202e-06
5.86817e-06
5.80075e-06
5.71688e-06
5.61315e-06
5.48551e-06
5.32932e-06
5.1393e-06
4.90965e-06
4.63422e-06
4.30679e-06
3.92162e-06
3.47409e-06
2.96168e-06
2.38509e-06
1.74951e-06
1.06587e-06
3.5171e-07
-3.68713e-07
-1.06538e-06
-1.70496e-06
-2.25469e-06
-2.68707e-06
-2.98447e-06
-3.14213e-06
-3.1686e-06
-3.08336e-06
-2.91241e-06
-2.68342e-06
-2.42184e-06
-2.14859e-06
-1.87936e-06
-1.62488e-06
-1.39168e-06
-1.18302e-06
-9.9978e-07
-8.41231e-07
-7.05652e-07
-5.90796e-07
-4.94214e-07
-4.13462e-07
-3.46239e-07
-2.90454e-07
-2.44254e-07
-2.06034e-07
-1.7442e-07
-1.48254e-07
-1.26564e-07
-1.08544e-07
-9.35265e-08
-8.09656e-08
-7.04125e-08
-6.15013e-08
-5.39341e-08
-4.74689e-08
-4.19091e-08
-3.7095e-08
-3.28971e-08
-2.92099e-08
-2.59475e-08
-2.30397e-08
-2.04285e-08
-1.80656e-08
-1.59106e-08
-1.39285e-08
-1.20891e-08
-1.03652e-08
-8.73239e-09
-7.1682e-09
-5.65225e-09
-4.16854e-09
-2.68748e-09
-1.35549e-09
6.0762e-06
6.07321e-06
6.0654e-06
6.05277e-06
6.03502e-06
6.01126e-06
5.98029e-06
5.94057e-06
5.89024e-06
5.82694e-06
5.74784e-06
5.64948e-06
5.52779e-06
5.37798e-06
5.19454e-06
4.97133e-06
4.70168e-06
4.37874e-06
3.99588e-06
3.54752e-06
3.03004e-06
2.44314e-06
1.79122e-06
1.08496e-06
3.42401e-07
-4.10665e-07
-1.1416e-06
-1.81353e-06
-2.38978e-06
-2.83934e-06
-3.14235e-06
-3.29377e-06
-3.30387e-06
-3.19531e-06
-2.99783e-06
-2.74246e-06
-2.45705e-06
-2.16391e-06
-1.87921e-06
-1.61353e-06
-1.37289e-06
-1.15988e-06
-9.74698e-07
-8.15948e-07
-6.8136e-07
-5.68243e-07
-4.73807e-07
-3.95364e-07
-3.30446e-07
-2.7685e-07
-2.32662e-07
-1.96245e-07
-1.66216e-07
-1.41421e-07
-1.20904e-07
-1.03876e-07
-8.96911e-08
-7.78237e-08
-6.78449e-08
-5.94068e-08
-5.22278e-08
-4.60799e-08
-4.07787e-08
-3.6175e-08
-3.2148e-08
-2.85996e-08
-2.54501e-08
-2.26342e-08
-2.00982e-08
-1.77974e-08
-1.56939e-08
-1.37553e-08
-1.19529e-08
-1.02609e-08
-8.65541e-09
-7.1144e-09
-5.61739e-09
-4.14825e-09
-2.67768e-09
-1.353e-09
6.08433e-06
6.08161e-06
6.0745e-06
6.06299e-06
6.04678e-06
6.02502e-06
5.99655e-06
5.95991e-06
5.91325e-06
5.85429e-06
5.7802e-06
5.68753e-06
5.57214e-06
5.42911e-06
5.25272e-06
5.03647e-06
4.77316e-06
4.45523e-06
4.07517e-06
3.62629e-06
3.10383e-06
2.50632e-06
1.83726e-06
1.10695e-06
3.3388e-07
-4.54545e-07
-1.22285e-06
-1.93026e-06
-2.53568e-06
-3.00411e-06
-3.31316e-06
-3.45744e-06
-3.44924e-06
-3.31485e-06
-3.08824e-06
-2.80417e-06
-2.49312e-06
-2.1788e-06
-1.87779e-06
-1.60044e-06
-1.35217e-06
-1.13482e-06
-9.47801e-07
-7.89022e-07
-6.55624e-07
-5.44445e-07
-4.52345e-07
-3.76384e-07
-3.1392e-07
-2.62644e-07
-2.20578e-07
-1.86055e-07
-1.57687e-07
-1.34327e-07
-1.15033e-07
-9.90385e-08
-8.57202e-08
-7.45734e-08
-6.51905e-08
-5.72429e-08
-5.04658e-08
-4.46461e-08
-3.96123e-08
-3.52259e-08
-3.13753e-08
-2.79701e-08
-2.49368e-08
-2.22155e-08
-1.97569e-08
-1.75198e-08
-1.54694e-08
-1.35755e-08
-1.18112e-08
-1.0152e-08
-8.57489e-09
-7.05796e-09
-5.58067e-09
-4.1267e-09
-2.66695e-09
-1.34981e-09
6.09255e-06
6.09011e-06
6.08371e-06
6.07334e-06
6.05869e-06
6.03897e-06
6.01306e-06
5.97955e-06
5.93666e-06
5.88214e-06
5.81319e-06
5.72637e-06
5.61749e-06
5.48152e-06
5.3125e-06
5.10357e-06
4.84702e-06
4.53456e-06
4.15775e-06
3.70877e-06
3.18157e-06
2.57345e-06
1.88687e-06
1.13161e-06
3.26561e-07
-4.99267e-07
-1.3074e-06
-2.05284e-06
-2.68964e-06
-3.17836e-06
-3.49374e-06
-3.63006e-06
-3.60183e-06
-3.43947e-06
-3.18162e-06
-2.86708e-06
-2.52909e-06
-2.19275e-06
-1.87499e-06
-1.5858e-06
-1.32993e-06
-1.10836e-06
-9.19679e-07
-7.61066e-07
-6.29042e-07
-5.19968e-07
-4.30347e-07
-3.56985e-07
-2.97071e-07
-2.48189e-07
-2.08304e-07
-1.75723e-07
-1.49051e-07
-1.27152e-07
-1.09103e-07
-9.4158e-08
-8.17178e-08
-7.13007e-08
-6.25207e-08
-5.50688e-08
-4.86975e-08
-4.32091e-08
-3.84448e-08
-3.42773e-08
-3.06042e-08
-2.73429e-08
-2.44265e-08
-2.18002e-08
-1.94192e-08
-1.7246e-08
-1.52486e-08
-1.33994e-08
-1.16733e-08
-1.00471e-08
-8.4984e-09
-7.00569e-09
-5.54821e-09
-4.10935e-09
-2.65999e-09
-1.34939e-09
6.10066e-06
6.09849e-06
6.0928e-06
6.08356e-06
6.07047e-06
6.05277e-06
6.0294e-06
5.999e-06
5.95986e-06
5.90978e-06
5.84598e-06
5.76505e-06
5.66274e-06
5.53391e-06
5.3724e-06
5.171e-06
4.92148e-06
4.61483e-06
4.24167e-06
3.793e-06
3.26149e-06
2.64304e-06
1.93899e-06
1.15851e-06
3.20746e-07
-5.43707e-07
-1.3933e-06
-2.17857e-06
-2.84836e-06
-3.35839e-06
-3.68029e-06
-3.80793e-06
-3.75831e-06
-3.56635e-06
-3.27575e-06
-2.92962e-06
-2.56402e-06
-2.20537e-06
-1.87082e-06
-1.56994e-06
-1.30668e-06
-1.08114e-06
-8.91033e-07
-7.32782e-07
-6.0229e-07
-4.95438e-07
-4.08376e-07
-3.37666e-07
-2.80333e-07
-2.33862e-07
-1.96162e-07
-1.65518e-07
-1.40534e-07
-1.20086e-07
-1.0327e-07
-8.93626e-08
-7.77893e-08
-6.80914e-08
-5.99047e-08
-5.29399e-08
-4.69671e-08
-4.18033e-08
-3.7303e-08
-3.33496e-08
-2.985e-08
-2.67292e-08
-2.39267e-08
-2.13929e-08
-1.90875e-08
-1.69764e-08
-1.50307e-08
-1.3225e-08
-1.15362e-08
-9.94228e-09
-8.42165e-09
-6.95291e-09
-5.51509e-09
-4.09117e-09
-2.65197e-09
-1.34778e-09
6.10845e-06
6.10655e-06
6.10154e-06
6.09339e-06
6.0818e-06
6.06606e-06
6.04515e-06
6.01778e-06
5.98229e-06
5.93652e-06
5.87776e-06
5.80258e-06
5.70672e-06
5.58494e-06
5.43088e-06
5.23701e-06
4.99461e-06
4.69396e-06
4.32474e-06
3.87682e-06
3.34149e-06
2.71328e-06
1.9923e-06
1.18695e-06
3.16582e-07
-5.86749e-07
-1.4784e-06
-2.30436e-06
-3.00798e-06
-3.53988e-06
-3.86833e-06
-3.98677e-06
-3.91486e-06
-3.69237e-06
-3.36833e-06
-2.99028e-06
-2.59708e-06
-2.21639e-06
-1.86547e-06
-1.55334e-06
-1.2831e-06
-1.05392e-06
-8.62652e-07
-7.04943e-07
-5.7609e-07
-4.71511e-07
-3.87019e-07
-3.18941e-07
-2.64151e-07
-2.2004e-07
-1.84471e-07
-1.5571e-07
-1.32362e-07
-1.13317e-07
-9.76898e-08
-8.47824e-08
-7.40427e-08
-6.50355e-08
-5.7418e-08
-5.09199e-08
-4.53282e-08
-4.04748e-08
-3.62263e-08
-3.24771e-08
-2.91427e-08
-2.61555e-08
-2.3461e-08
-2.10149e-08
-1.87808e-08
-1.67283e-08
-1.48313e-08
-1.30666e-08
-1.14129e-08
-9.84935e-09
-8.35517e-09
-6.90906e-09
-5.48973e-09
-4.07966e-09
-2.64934e-09
-1.3498e-09
6.11572e-06
6.11407e-06
6.1097e-06
6.10258e-06
6.0924e-06
6.0785e-06
6.05991e-06
6.0354e-06
6.00335e-06
5.96167e-06
5.90768e-06
5.83798e-06
5.74828e-06
5.63325e-06
5.48638e-06
5.29982e-06
5.06441e-06
4.76975e-06
4.40463e-06
3.95781e-06
3.41925e-06
2.78208e-06
2.04513e-06
1.21599e-06
3.14024e-07
-6.27333e-07
-1.56047e-06
-2.4268e-06
-3.16417e-06
-3.71788e-06
-4.05274e-06
-4.16172e-06
-4.06728e-06
-3.81418e-06
-3.45696e-06
-3.04757e-06
-2.62758e-06
-2.22574e-06
-1.8593e-06
-1.53664e-06
-1.25998e-06
-1.02759e-06
-8.35409e-07
-6.78381e-07
-5.51212e-07
-4.48881e-07
-3.66886e-07
-3.0134e-07
-2.48977e-07
-2.07108e-07
-1.73555e-07
-1.46568e-07
-1.24758e-07
-1.07027e-07
-9.2513e-08
-8.05387e-08
-7.05757e-08
-6.22109e-08
-5.51216e-08
-4.90561e-08
-4.38171e-08
-3.92504e-08
-3.52344e-08
-3.16732e-08
-2.84907e-08
-2.56262e-08
-2.30308e-08
-2.06651e-08
-1.84964e-08
-1.64976e-08
-1.46451e-08
-1.2918e-08
-1.12966e-08
-9.76122e-09
-8.29167e-09
-6.86675e-09
-5.4648e-09
-4.06772e-09
-2.64559e-09
-1.35037e-09
6.12229e-06
6.12086e-06
6.11708e-06
6.11089e-06
6.102e-06
6.08978e-06
6.07331e-06
6.0514e-06
6.0225e-06
5.98456e-06
5.93496e-06
5.87029e-06
5.78628e-06
5.67752e-06
5.53734e-06
5.35764e-06
5.12883e-06
4.83993e-06
4.4789e-06
4.03343e-06
3.49224e-06
2.84711e-06
2.09559e-06
1.24439e-06
3.12821e-07
-6.64505e-07
-1.63719e-06
-2.54227e-06
-3.31217e-06
-3.88694e-06
-4.22788e-06
-4.3275e-06
-4.21106e-06
-3.92834e-06
-3.53928e-06
-3.10014e-06
-2.65499e-06
-2.23351e-06
-1.8528e-06
-1.52059e-06
-1.23823e-06
-1.00306e-06
-8.10216e-07
-6.53947e-07
-5.28424e-07
-4.28226e-07
-3.48567e-07
-2.85368e-07
-2.35242e-07
-1.9543e-07
-1.63718e-07
-1.38347e-07
-1.17934e-07
-1.01395e-07
-8.78871e-08
-7.67552e-08
-6.7492e-08
-5.97049e-08
-5.309e-08
-4.7412e-08
-4.24886e-08
-3.81778e-08
-3.43688e-08
-3.09747e-08
-2.79268e-08
-2.51707e-08
-2.26626e-08
-2.03674e-08
-1.82559e-08
-1.63037e-08
-1.44899e-08
-1.27954e-08
-1.12019e-08
-9.69085e-09
-8.24263e-09
-6.83607e-09
-5.44912e-09
-4.06299e-09
-2.64718e-09
-1.35423e-09
6.12799e-06
6.12675e-06
6.12349e-06
6.11811e-06
6.11035e-06
6.0996e-06
6.08498e-06
6.06536e-06
6.03923e-06
6.00459e-06
5.95885e-06
5.89864e-06
5.81967e-06
5.71648e-06
5.58228e-06
5.40874e-06
5.18592e-06
4.90229e-06
4.54511e-06
4.10111e-06
3.55787e-06
2.90591e-06
2.14159e-06
1.27074e-06
3.12524e-07
-6.97459e-07
-1.70632e-06
-2.64706e-06
-3.44704e-06
-4.04131e-06
-4.3878e-06
-4.47857e-06
-4.34158e-06
-4.03137e-06
-3.61304e-06
-3.1468e-06
-2.67896e-06
-2.23994e-06
-1.84663e-06
-1.50608e-06
-1.21881e-06
-9.81315e-07
-7.88003e-07
-6.32497e-07
-5.08492e-07
-4.10218e-07
-3.32641e-07
-2.71519e-07
-2.23362e-07
-1.85352e-07
-1.55248e-07
-1.31284e-07
-1.12083e-07
-9.65762e-08
-8.39373e-08
-7.35312e-08
-6.48697e-08
-5.75781e-08
-5.13692e-08
-4.60221e-08
-4.13674e-08
-3.7274e-08
-3.36404e-08
-3.03875e-08
-2.74531e-08
-2.47882e-08
-2.23534e-08
-2.01171e-08
-1.80534e-08
-1.61403e-08
-1.43588e-08
-1.26914e-08
-1.11214e-08
-9.63095e-09
-8.20089e-09
-6.81007e-09
-5.436e-09
-4.05921e-09
-2.64861e-09
-1.35734e-09
6.13266e-06
6.13159e-06
6.12875e-06
6.12406e-06
6.11723e-06
6.1077e-06
6.09462e-06
6.07691e-06
6.05309e-06
6.0212e-06
5.97869e-06
5.92221e-06
5.84747e-06
5.74898e-06
5.61983e-06
5.45153e-06
5.23383e-06
4.95476e-06
4.60096e-06
4.15837e-06
3.61359e-06
2.95603e-06
2.181e-06
1.29351e-06
3.12527e-07
-7.25561e-07
-1.76576e-06
-2.73757e-06
-3.56386e-06
-4.17521e-06
-4.52653e-06
-4.60942e-06
-4.45428e-06
-4.11998e-06
-3.67618e-06
-3.18656e-06
-2.69932e-06
-2.24541e-06
-1.84149e-06
-1.49398e-06
-1.20266e-06
-9.63292e-07
-7.69645e-07
-6.14819e-07
-4.9211e-07
-3.95456e-07
-3.19621e-07
-2.60227e-07
-2.137e-07
-1.77178e-07
-1.48397e-07
-1.25589e-07
-1.07381e-07
-9.27163e-08
-8.07855e-08
-7.09691e-08
-6.2795e-08
-5.59036e-08
-5.00213e-08
-4.49396e-08
-4.04995e-08
-3.65789e-08
-3.30842e-08
-2.99425e-08
-2.70969e-08
-2.45028e-08
-2.21246e-08
-1.99335e-08
-1.7906e-08
-1.60223e-08
-1.42649e-08
-1.26179e-08
-1.10653e-08
-9.59017e-09
-8.17367e-09
-6.7946e-09
-5.43006e-09
-4.05995e-09
-2.65251e-09
-1.36139e-09
6.13619e-06
6.13524e-06
6.13273e-06
6.12856e-06
6.12245e-06
6.11386e-06
6.10198e-06
6.08573e-06
6.06369e-06
6.03393e-06
5.99392e-06
5.94034e-06
5.86889e-06
5.77404e-06
5.64884e-06
5.48463e-06
5.27095e-06
4.99548e-06
4.64439e-06
4.20298e-06
3.65707e-06
2.9952e-06
2.21178e-06
1.31119e-06
3.12151e-07
-7.48353e-07
-1.81368e-06
-2.81051e-06
-3.65807e-06
-4.28326e-06
-4.63845e-06
-4.7149e-06
-4.545e-06
-4.19121e-06
-3.72692e-06
-3.21863e-06
-2.716e-06
-2.25036e-06
-1.83811e-06
-1.48516e-06
-1.19068e-06
-9.49855e-07
-7.5594e-07
-6.01627e-07
-4.79902e-07
-3.84477e-07
-3.09961e-07
-2.51872e-07
-2.06575e-07
-1.71171e-07
-1.43383e-07
-1.21437e-07
-1.03969e-07
-8.99306e-08
-7.85238e-08
-6.91419e-08
-6.13254e-08
-5.47262e-08
-4.90811e-08
-4.41909e-08
-3.99046e-08
-3.61072e-08
-3.27105e-08
-2.96467e-08
-2.68628e-08
-2.43175e-08
-2.19777e-08
-1.98171e-08
-1.78138e-08
-1.59494e-08
-1.42079e-08
-1.25741e-08
-1.10329e-08
-9.56798e-09
-8.16052e-09
-6.78932e-09
-5.4311e-09
-4.06518e-09
-2.65918e-09
-1.36695e-09
6.13847e-06
6.13762e-06
6.13532e-06
6.1315e-06
6.12588e-06
6.11792e-06
6.10684e-06
6.09158e-06
6.07074e-06
6.04242e-06
6.0041e-06
5.95248e-06
5.88325e-06
5.79089e-06
5.66836e-06
5.50694e-06
5.29599e-06
5.02298e-06
4.67373e-06
4.2331e-06
3.68638e-06
3.02149e-06
2.23222e-06
1.32245e-06
3.10745e-07
-7.65532e-07
-1.84859e-06
-2.86313e-06
-3.72578e-06
-4.3608e-06
-4.71874e-06
-4.79058e-06
-4.61019e-06
-4.24258e-06
-3.76385e-06
-3.24244e-06
-2.72903e-06
-2.25518e-06
-1.83711e-06
-1.48034e-06
-1.1836e-06
-9.41698e-07
-7.47518e-07
-5.93478e-07
-4.72349e-07
-3.77691e-07
-3.04005e-07
-2.46741e-07
-2.02222e-07
-1.67526e-07
-1.40363e-07
-1.1896e-07
-1.01955e-07
-8.83054e-08
-7.7222e-08
-6.81063e-08
-6.05066e-08
-5.40827e-08
-4.85782e-08
-4.37998e-08
-3.96018e-08
-3.58736e-08
-3.2531e-08
-2.95091e-08
-2.67575e-08
-2.42368e-08
-2.19159e-08
-1.97695e-08
-1.77771e-08
-1.59211e-08
-1.41861e-08
-1.25578e-08
-1.10214e-08
-9.56067e-09
-8.15708e-09
-6.78926e-09
-5.43363e-09
-4.06908e-09
-2.66281e-09
-1.36919e-09
6.13946e-06
6.13864e-06
6.13645e-06
6.1328e-06
6.12742e-06
6.11976e-06
6.10907e-06
6.0943e-06
6.07404e-06
6.04642e-06
6.00893e-06
5.95826e-06
5.89013e-06
5.79897e-06
5.67775e-06
5.51768e-06
5.30804e-06
5.03619e-06
4.68778e-06
4.24743e-06
3.70014e-06
3.03352e-06
2.24104e-06
1.32631e-06
3.07809e-07
-7.769e-07
-1.86942e-06
-2.89342e-06
-3.76412e-06
-4.4044e-06
-4.76381e-06
-4.8332e-06
-4.64723e-06
-4.27231e-06
-3.78594e-06
-3.2576e-06
-2.73846e-06
-2.26021e-06
-1.83896e-06
-1.48004e-06
-1.18196e-06
-9.39324e-07
-7.44838e-07
-5.90776e-07
-4.69801e-07
-3.75395e-07
-3.02007e-07
-2.45049e-07
-2.00823e-07
-1.66394e-07
-1.39466e-07
-1.18265e-07
-1.01428e-07
-8.79172e-08
-7.69456e-08
-6.79184e-08
-6.03875e-08
-5.40158e-08
-4.855e-08
-4.37995e-08
-3.96209e-08
-3.59055e-08
-3.25706e-08
-2.95526e-08
-2.68023e-08
-2.4281e-08
-2.1958e-08
-1.98088e-08
-1.78131e-08
-1.59537e-08
-1.42155e-08
-1.25842e-08
-1.10451e-08
-9.58216e-09
-8.17666e-09
-6.80713e-09
-5.44977e-09
-4.08317e-09
-2.67407e-09
-1.37664e-09
6.1391e-06
6.13828e-06
6.13608e-06
6.13242e-06
6.12701e-06
6.11933e-06
6.10861e-06
6.09379e-06
6.07349e-06
6.04581e-06
6.00825e-06
5.95751e-06
5.88928e-06
5.79802e-06
5.67667e-06
5.51645e-06
5.30665e-06
5.03459e-06
4.68592e-06
4.24527e-06
3.69763e-06
3.03057e-06
2.23759e-06
1.32226e-06
3.03099e-07
-7.82328e-07
-1.87558e-06
-2.90025e-06
-3.7715e-06
-4.41213e-06
-4.77165e-06
-4.84094e-06
-4.65469e-06
-4.2794e-06
-3.79262e-06
-3.26385e-06
-2.74426e-06
-2.26556e-06
-1.84386e-06
-1.4845e-06
-1.186e-06
-9.42961e-07
-7.48103e-07
-5.93696e-07
-4.72405e-07
-3.77712e-07
-3.04062e-07
-2.4687e-07
-2.02432e-07
-1.67813e-07
-1.40716e-07
-1.19364e-07
-1.02393e-07
-8.8763e-08
-7.76853e-08
-6.85639e-08
-6.09495e-08
-5.45039e-08
-4.89728e-08
-4.41646e-08
-3.99352e-08
-3.61753e-08
-3.28014e-08
-2.97495e-08
-2.69695e-08
-2.44224e-08
-2.20772e-08
-1.99087e-08
-1.78962e-08
-1.60224e-08
-1.42718e-08
-1.26299e-08
-1.10816e-08
-9.61073e-09
-8.19836e-09
-6.82284e-09
-5.46027e-09
-4.08912e-09
-2.67613e-09
-1.37608e-09
6.13741e-06
6.13654e-06
6.13422e-06
6.13035e-06
6.12467e-06
6.11663e-06
6.10545e-06
6.09007e-06
6.06909e-06
6.04059e-06
6.00207e-06
5.95022e-06
5.88072e-06
5.78804e-06
5.66514e-06
5.50327e-06
5.2918e-06
5.01817e-06
4.66817e-06
4.22665e-06
3.67885e-06
3.01267e-06
2.22189e-06
1.31036e-06
2.9668e-07
-7.81722e-07
-1.86693e-06
-2.88347e-06
-3.74774e-06
-4.3838e-06
-4.74208e-06
-4.81361e-06
-4.6324e-06
-4.26371e-06
-3.78377e-06
-3.26109e-06
-2.74636e-06
-2.27117e-06
-1.85175e-06
-1.49367e-06
-1.19568e-06
-9.52583e-07
-7.57295e-07
-6.02229e-07
-4.8016e-07
-3.84645e-07
-3.10184e-07
-2.52221e-07
-2.07074e-07
-1.71815e-07
-1.44149e-07
-1.22297e-07
-1.04892e-07
-9.08866e-08
-7.9487e-08
-7.00905e-08
-6.22417e-08
-5.55968e-08
-4.98965e-08
-4.49451e-08
-4.05944e-08
-3.6732e-08
-3.32715e-08
-3.01464e-08
-2.73047e-08
-2.47054e-08
-2.2316e-08
-2.01101e-08
-1.80658e-08
-1.61649e-08
-1.43911e-08
-1.27291e-08
-1.11635e-08
-9.67732e-09
-8.25147e-09
-6.86408e-09
-5.49121e-09
-4.11135e-09
-2.69109e-09
-1.38467e-09
6.13443e-06
6.13347e-06
6.1309e-06
6.12665e-06
6.12044e-06
6.11171e-06
6.09966e-06
6.08322e-06
6.06094e-06
6.03089e-06
5.99055e-06
5.93658e-06
5.86467e-06
5.7693e-06
5.64348e-06
5.47853e-06
5.26398e-06
4.98748e-06
4.63515e-06
4.19225e-06
3.64456e-06
2.98057e-06
2.19467e-06
1.29119e-06
2.88931e-07
-7.75033e-07
-1.84385e-06
-2.84392e-06
-3.6941e-06
-4.32098e-06
-4.67674e-06
-4.7527e-06
-4.58152e-06
-4.22599e-06
-3.75974e-06
-3.24938e-06
-2.74459e-06
-2.27674e-06
-1.86229e-06
-1.50719e-06
-1.21064e-06
-9.67858e-07
-7.72114e-07
-6.16109e-07
-4.92831e-07
-3.9599e-07
-3.2019e-07
-2.60943e-07
-2.14604e-07
-1.78266e-07
-1.49642e-07
-1.26951e-07
-1.08819e-07
-9.41894e-08
-8.22571e-08
-7.24085e-08
-6.41779e-08
-5.72116e-08
-5.12416e-08
-4.60643e-08
-4.15248e-08
-3.75047e-08
-3.39129e-08
-3.06784e-08
-2.77456e-08
-2.50705e-08
-2.26179e-08
-2.03592e-08
-1.82708e-08
-1.63328e-08
-1.45276e-08
-1.28388e-08
-1.125e-08
-9.74366e-09
-8.30008e-09
-6.89724e-09
-5.5112e-09
-4.12072e-09
-2.69273e-09
-1.38209e-09
6.13021e-06
6.12911e-06
6.1262e-06
6.1214e-06
6.11443e-06
6.10471e-06
6.0914e-06
6.07341e-06
6.04925e-06
6.01697e-06
5.97399e-06
5.91697e-06
5.8416e-06
5.74236e-06
5.61235e-06
5.44302e-06
5.2241e-06
4.94359e-06
4.58806e-06
4.14341e-06
3.59617e-06
2.9357e-06
2.15725e-06
1.26584e-06
2.80475e-07
-7.62292e-07
-1.8072e-06
-2.78336e-06
-3.61316e-06
-4.2268e-06
-4.57892e-06
-4.66121e-06
-4.50441e-06
-4.1678e-06
-3.72135e-06
-3.22892e-06
-2.73874e-06
-2.28183e-06
-1.87489e-06
-1.52444e-06
-1.23028e-06
-9.88229e-07
-7.92069e-07
-6.34913e-07
-5.10063e-07
-4.11454e-07
-3.33846e-07
-2.72849e-07
-2.24881e-07
-1.87065e-07
-1.57127e-07
-1.33285e-07
-1.14155e-07
-9.86704e-08
-8.60098e-08
-7.5545e-08
-6.67953e-08
-5.93934e-08
-5.30589e-08
-4.75774e-08
-4.27845e-08
-3.85536e-08
-3.47865e-08
-3.14065e-08
-2.83528e-08
-2.55772e-08
-2.30409e-08
-2.07123e-08
-1.85654e-08
-1.6578e-08
-1.47309e-08
-1.30061e-08
-1.13861e-08
-9.85225e-09
-8.38439e-09
-6.96021e-09
-5.5559e-09
-4.15046e-09
-2.7109e-09
-1.39134e-09
6.12486e-06
6.12359e-06
6.12024e-06
6.11473e-06
6.10678e-06
6.09578e-06
6.08087e-06
6.06089e-06
6.03433e-06
5.99918e-06
5.95284e-06
5.89194e-06
5.81215e-06
5.70801e-06
5.57269e-06
5.39784e-06
5.17346e-06
4.88799e-06
4.52861e-06
4.082e-06
3.53565e-06
2.88003e-06
2.11143e-06
1.2357e-06
2.7207e-07
-7.43666e-07
-1.75829e-06
-2.70433e-06
-3.50859e-06
-4.10566e-06
-4.45319e-06
-4.54332e-06
-4.40437e-06
-4.0914e-06
-3.66985e-06
-3.20014e-06
-2.72866e-06
-2.28589e-06
-1.88882e-06
-1.54459e-06
-1.25378e-06
-1.01292e-06
-8.16446e-07
-6.58006e-07
-5.313e-07
-4.30556e-07
-3.50735e-07
-2.87583e-07
-2.37596e-07
-1.97944e-07
-1.66368e-07
-1.41089e-07
-1.20714e-07
-1.04162e-07
-9.05929e-08
-7.936e-08
-6.99642e-08
-6.20213e-08
-5.52353e-08
-4.9378e-08
-4.42731e-08
-3.97836e-08
-3.58026e-08
-3.22456e-08
-2.90457e-08
-2.61492e-08
-2.35129e-08
-2.11013e-08
-1.88853e-08
-1.68401e-08
-1.49442e-08
-1.31778e-08
-1.15218e-08
-9.95655e-09
-8.46105e-09
-7.0128e-09
-5.58809e-09
-4.16636e-09
-2.71507e-09
-1.3889e-09
6.11851e-06
6.11704e-06
6.11315e-06
6.1068e-06
6.09768e-06
6.08516e-06
6.06833e-06
6.04598e-06
6.01655e-06
5.978e-06
5.92767e-06
5.86216e-06
5.77715e-06
5.66723e-06
5.52569e-06
5.34439e-06
5.11369e-06
4.82255e-06
4.45887e-06
4.01026e-06
3.46536e-06
2.81587e-06
2.0593e-06
1.20237e-06
2.64488e-07
-7.19503e-07
-1.69882e-06
-2.60998e-06
-3.3848e-06
-3.96281e-06
-4.30502e-06
-4.40401e-06
-4.28544e-06
-3.9996e-06
-3.60685e-06
-3.16368e-06
-2.71428e-06
-2.2884e-06
-1.90328e-06
-1.56673e-06
-1.28018e-06
-1.04101e-06
-8.44416e-07
-6.84653e-07
-5.55907e-07
-4.52757e-07
-3.7041e-07
-3.04776e-07
-2.52453e-07
-2.10665e-07
-1.77181e-07
-1.50226e-07
-1.28398e-07
-1.10597e-07
-9.59663e-08
-8.38354e-08
-7.36847e-08
-6.51099e-08
-5.7797e-08
-5.15015e-08
-4.6033e-08
-4.12424e-08
-3.70123e-08
-3.32494e-08
-2.98793e-08
-2.6842e-08
-2.4089e-08
-2.15805e-08
-1.92837e-08
-1.71707e-08
-1.52173e-08
-1.34016e-08
-1.17029e-08
-1.01e-08
-8.57145e-09
-7.09425e-09
-5.64484e-09
-4.20304e-09
-2.7364e-09
-1.39875e-09
6.1113e-06
6.1096e-06
6.10511e-06
6.09779e-06
6.08735e-06
6.0731e-06
6.05409e-06
6.02906e-06
5.99639e-06
5.95398e-06
5.89914e-06
5.82844e-06
5.73757e-06
5.62118e-06
5.4727e-06
5.28427e-06
5.04664e-06
4.74937e-06
4.38117e-06
3.93071e-06
3.38787e-06
2.74572e-06
2.00304e-06
1.16743e-06
2.584e-07
-6.90362e-07
-1.63083e-06
-2.50384e-06
-3.24662e-06
-3.80394e-06
-4.14029e-06
-4.24871e-06
-4.15206e-06
-3.89561e-06
-3.53434e-06
-3.12046e-06
-2.6957e-06
-2.28892e-06
-1.91748e-06
-1.5899e-06
-1.30847e-06
-1.07152e-06
-8.75046e-07
-7.1401e-07
-5.83135e-07
-4.77403e-07
-3.92305e-07
-3.23943e-07
-2.69035e-07
-2.24875e-07
-1.89263e-07
-1.60434e-07
-1.36977e-07
-1.17777e-07
-1.01953e-07
-8.88139e-08
-7.78152e-08
-6.85307e-08
-6.06262e-08
-5.38392e-08
-4.79634e-08
-4.28359e-08
-3.83274e-08
-3.4335e-08
-3.07755e-08
-2.7582e-08
-2.47e-08
-2.20847e-08
-1.9699e-08
-1.75117e-08
-1.54957e-08
-1.36265e-08
-1.18815e-08
-1.02383e-08
-8.67433e-09
-7.16634e-09
-5.69088e-09
-4.22814e-09
-2.74603e-09
-1.39868e-09
6.10342e-06
6.10146e-06
6.09632e-06
6.08794e-06
6.07605e-06
6.05991e-06
6.03851e-06
6.01056e-06
5.97435e-06
5.92775e-06
5.86801e-06
5.79168e-06
5.69448e-06
5.57113e-06
5.41524e-06
5.21922e-06
4.9743e-06
4.67068e-06
4.29797e-06
3.84594e-06
3.30582e-06
2.67207e-06
1.94476e-06
1.13234e-06
2.54301e-07
-6.57011e-07
-1.55651e-06
-2.3896e-06
-3.09901e-06
-3.63479e-06
-3.96494e-06
-4.08293e-06
-4.00881e-06
-3.78283e-06
-3.45449e-06
-3.07161e-06
-2.67322e-06
-2.28713e-06
-1.93074e-06
-1.61318e-06
-1.33766e-06
-1.10343e-06
-9.07382e-07
-7.45203e-07
-6.12207e-07
-5.03816e-07
-4.15838e-07
-3.44591e-07
-2.86931e-07
-2.40234e-07
-2.02339e-07
-1.71491e-07
-1.46278e-07
-1.25566e-07
-1.08453e-07
-9.42231e-08
-8.23066e-08
-7.22542e-08
-6.37095e-08
-5.63906e-08
-5.0074e-08
-4.45821e-08
-3.97727e-08
-3.55319e-08
-3.17676e-08
-2.8405e-08
-2.53833e-08
-2.26521e-08
-2.01699e-08
-1.79017e-08
-1.58172e-08
-1.38895e-08
-1.20938e-08
-1.04063e-08
-8.80335e-09
-7.26142e-09
-5.75707e-09
-4.27076e-09
-2.77037e-09
-1.40919e-09
6.09505e-06
6.09283e-06
6.08698e-06
6.07748e-06
6.06405e-06
6.0459e-06
6.02199e-06
5.99093e-06
5.951e-06
5.89997e-06
5.83508e-06
5.75285e-06
5.64903e-06
5.51844e-06
5.35487e-06
5.15106e-06
4.89872e-06
4.58876e-06
4.21172e-06
3.75854e-06
3.22177e-06
2.59729e-06
1.88642e-06
1.09836e-06
2.52466e-07
-6.20391e-07
-1.47819e-06
-2.2709e-06
-2.94672e-06
-3.46086e-06
-3.78464e-06
-3.91198e-06
-3.86021e-06
-3.66473e-06
-3.36968e-06
-3.01846e-06
-2.64734e-06
-2.28293e-06
-1.94251e-06
-1.63578e-06
-1.36681e-06
-1.13578e-06
-9.40477e-07
-7.77346e-07
-6.42316e-07
-5.31279e-07
-4.40383e-07
-3.6618e-07
-3.05679e-07
-2.56346e-07
-2.16069e-07
-1.83111e-07
-1.56056e-07
-1.33756e-07
-1.15287e-07
-9.99069e-08
-8.7023e-08
-7.61603e-08
-6.69401e-08
-5.90599e-08
-5.22784e-08
-4.64019e-08
-4.12752e-08
-3.67727e-08
-3.27928e-08
-2.92524e-08
-2.60838e-08
-2.3231e-08
-2.06478e-08
-1.8295e-08
-1.61392e-08
-1.41506e-08
-1.23023e-08
-1.05689e-08
-8.92595e-09
-7.34929e-09