# Force       
# CofR        : (0.000000e+00 0.000000e+00 0.000000e+00)
#
# Time        	total_x total_y total_z	pressure_x pressure_y pressure_z	viscous_x viscous_y viscous_z
1              8.671592e+00 -1.339976e-01 2.825636e+00 8.396255e+00 -1.339043e-01 2.825327e+00 2.753366e-01 -9.327816e-05 3.088158e-04
2              1.112221e+01 3.619384e-02 3.866822e+00 1.086516e+01 3.633264e-02 3.870022e+00 2.570533e-01 -1.388071e-04 -3.200107e-03
3              1.041816e+01 1.478085e-01 3.685332e+00 1.017762e+01 1.478319e-01 3.692222e+00 2.405389e-01 -2.342508e-05 -6.889555e-03
4              7.871703e+00 2.179231e-01 2.722558e+00 7.642997e+00 2.178612e-01 2.732043e+00 2.287062e-01 6.191073e-05 -9.484890e-03
5              4.713355e+00 2.473432e-01 1.475436e+00 4.492102e+00 2.471064e-01 1.486014e+00 2.212528e-01 2.367545e-04 -1.057798e-02
6              1.836690e+00 2.432151e-01 3.293832e-01 1.618999e+00 2.428119e-01 3.396703e-01 2.176906e-01 4.032648e-04 -1.028703e-02
7              -2.432322e-01 2.167556e-01 -4.756658e-01 -4.602378e-01 2.163178e-01 -4.666463e-01 2.170057e-01 4.377924e-04 -9.019532e-03
8              -1.272049e+00 1.786428e-01 -8.156017e-01 -1.489901e+00 1.783002e-01 -8.082815e-01 2.178523e-01 3.425749e-04 -7.320191e-03
9              -1.487133e+00 1.379929e-01 -8.193602e-01 -1.706069e+00 1.377827e-01 -8.136742e-01 2.189355e-01 2.101997e-04 -5.686023e-03
10             -1.167902e+00 9.637127e-02 -6.075088e-01 -1.387223e+00 9.627690e-02 -6.030744e-01 2.193207e-01 9.437403e-05 -4.434389e-03
11             -5.556032e-01 5.381777e-02 -2.772897e-01 -7.741334e-01 5.377981e-02 -2.735713e-01 2.185302e-01 3.795766e-05 -3.718434e-03
12             1.285567e-01 1.570424e-02 7.115529e-02 -8.796512e-02 1.565666e-02 7.469073e-02 2.165219e-01 4.758366e-05 -3.535444e-03
13             7.162462e-01 -1.109120e-02 3.582005e-01 5.026491e-01 -1.119727e-02 3.619555e-01 2.135971e-01 1.060632e-04 -3.754983e-03
14             1.113865e+00 -2.164371e-02 5.378550e-01 9.036590e-01 -2.183621e-02 5.420466e-01 2.102064e-01 1.924933e-04 -4.191616e-03
15             1.297599e+00 -1.540639e-02 6.001926e-01 1.090821e+00 -1.568614e-02 6.048489e-01 2.067778e-01 2.797578e-04 -4.656294e-03
16             1.310865e+00 2.440610e-03 5.740262e-01 1.107246e+00 2.094317e-03 5.790337e-01 2.036194e-01 3.462928e-04 -5.007525e-03
17             1.226173e+00 2.661693e-02 4.956224e-01 1.025257e+00 2.623703e-02 5.007965e-01 2.009155e-01 3.799016e-04 -5.174105e-03
18             1.097125e+00 5.236382e-02 3.932726e-01 8.984073e-01 5.198809e-02 3.984235e-01 1.987182e-01 3.757384e-04 -5.150992e-03
19             9.671626e-01 7.439590e-02 2.941570e-01 7.701891e-01 7.405961e-02 2.991351e-01 1.969735e-01 3.362872e-04 -4.978125e-03
20             8.652908e-01 8.856252e-02 2.184409e-01 6.697248e-01 8.829280e-02 2.231601e-01 1.955660e-01 2.697142e-04 -4.719155e-03
21             8.038303e-01 9.295597e-02 1.757539e-01 6.094658e-01 9.276727e-02 1.801947e-01 1.943646e-01 1.887008e-04 -4.440780e-03
22             7.807029e-01 8.841516e-02 1.647669e-01 5.874515e-01 8.830764e-02 1.689616e-01 1.932514e-01 1.075258e-04 -4.194717e-03
23             7.846061e-01 7.750567e-02 1.766094e-01 5.924611e-01 7.746772e-02 1.806218e-01 1.921450e-01 3.795064e-05 -4.012372e-03
24             8.024149e-01 6.300928e-02 2.014702e-01 6.114134e-01 6.302169e-02 2.053715e-01 1.910015e-01 -1.241116e-05 -3.901314e-03
25             8.229472e-01 4.780635e-02 2.304549e-01 6.331341e-01 4.784731e-02 2.343060e-01 1.898131e-01 -4.096468e-05 -3.851088e-03
26             8.384876e-01 3.456238e-02 2.562089e-01 6.498887e-01 3.461145e-02 2.600498e-01 1.885989e-01 -4.907077e-05 -3.840962e-03
27             8.454001e-01 2.512865e-02 2.739254e-01 6.580094e-01 2.516944e-02 2.777730e-01 1.873907e-01 -4.079059e-05 -3.847577e-03
28             8.436490e-01 2.016032e-02 2.818461e-01 6.574285e-01 2.018186e-02 2.856972e-01 1.862205e-01 -2.153350e-05 -3.851048e-03
29             8.354614e-01 1.907853e-02 2.809906e-01 6.503487e-01 1.907608e-02 2.848290e-01 1.851127e-01 2.456394e-06 -3.838463e-03
30             8.238656e-01 2.056389e-02 2.738944e-01 6.397834e-01 2.053749e-02 2.776989e-01 1.840822e-01 2.640112e-05 -3.804580e-03
31             8.117642e-01 2.318036e-02 2.632780e-01 6.286311e-01 2.313313e-02 2.670293e-01 1.831331e-01 4.723155e-05 -3.751240e-03
32             8.014285e-01 2.567173e-02 2.515447e-01 6.191668e-01 2.560770e-02 2.552295e-01 1.822617e-01 6.403623e-05 -3.684741e-03
33             7.946870e-01 2.729367e-02 2.407828e-01 6.131895e-01 2.721639e-02 2.443956e-01 1.814975e-01 7.727832e-05 -3.612779e-03
34             7.911655e-01 2.718094e-02 2.319903e-01 6.104154e-01 2.709352e-02 2.355339e-01 1.807501e-01 8.742444e-05 -3.543625e-03
35             7.903588e-01 2.527210e-02 2.259628e-01 6.103093e-01 2.517494e-02 2.294448e-01 1.800495e-01 9.716537e-05 -3.482023e-03
36             7.912318e-01 2.202190e-02 2.228471e-01 6.118432e-01 2.191385e-02 2.262777e-01 1.793886e-01 1.080418e-04 -3.430597e-03
37             7.927249e-01 1.816896e-02 2.220541e-01 6.139620e-01 1.804825e-02 2.254435e-01 1.787628e-01 1.207032e-04 -3.389398e-03
38             7.940498e-01 1.440199e-02 2.225917e-01 6.158796e-01 1.426686e-02 2.259482e-01 1.781702e-01 1.351272e-04 -3.356542e-03
39             7.947430e-01 1.116623e-02 2.234907e-01 6.171329e-01 1.101570e-02 2.268201e-01 1.776102e-01 1.505277e-04 -3.329414e-03
40             7.946156e-01 8.661465e-03 2.240321e-01 6.175320e-01 8.495915e-03 2.273372e-01 1.770836e-01 1.655502e-04 -3.305070e-03
41             7.936981e-01 6.923732e-03 2.237964e-01 6.171065e-01 6.744796e-03 2.270775e-01 1.765916e-01 1.789356e-04 -3.281084e-03
42             7.920570e-01 5.819111e-03 2.225752e-01 6.159227e-01 5.629580e-03 2.258347e-01 1.761342e-01 1.895317e-04 -3.259528e-03
43             7.900058e-01 5.146372e-03 2.205797e-01 6.142944e-01 4.949320e-03 2.238160e-01 1.757114e-01 1.970516e-04 -3.236295e-03
44             7.879686e-01 4.708416e-03 2.182021e-01 6.126465e-01 4.506930e-03 2.214095e-01 1.753221e-01 2.014852e-04 -3.207403e-03
45             7.859441e-01 4.187668e-03 2.154770e-01 6.109796e-01 3.984878e-03 2.186587e-01 1.749645e-01 2.027893e-04 -3.181631e-03
46             7.842261e-01 3.400550e-03 2.126326e-01 6.095887e-01 3.198876e-03 2.157837e-01 1.746374e-01 2.016740e-04 -3.151147e-03
47             7.828747e-01 2.255206e-03 2.097599e-01 6.085369e-01 2.056741e-03 2.128812e-01 1.743378e-01 1.984657e-04 -3.121326e-03
48             7.817241e-01 9.232305e-04 2.071046e-01 6.076608e-01 7.295048e-04 2.102017e-01 1.740633e-01 1.937257e-04 -3.097118e-03
49             7.808733e-01 -3.347086e-04 2.051768e-01 6.070612e-01 -5.227753e-04 2.082468e-01 1.738121e-01 1.880668e-04 -3.070029e-03
50             7.801844e-01 -1.429651e-03 2.038144e-01 6.066025e-01 -1.611272e-03 2.068592e-01 1.735819e-01 1.816207e-04 -3.044777e-03
51             7.795623e-01 -2.397883e-03 2.027076e-01 6.061909e-01 -2.572371e-03 2.057289e-01 1.733714e-01 1.744872e-04 -3.021262e-03
52             7.789055e-01 -3.294015e-03 2.016158e-01 6.057659e-01 -3.459251e-03 2.046146e-01 1.731396e-01 1.652357e-04 -2.998850e-03
53             7.782125e-01 -4.147138e-03 2.003996e-01 6.052841e-01 -4.302536e-03 2.033771e-01 1.729285e-01 1.553982e-04 -2.977524e-03
54             7.773847e-01 -5.033562e-03 1.988726e-01 6.046466e-01 -5.178397e-03 2.018327e-01 1.727382e-01 1.448349e-04 -2.960080e-03
55             7.764763e-01 -5.990830e-03 1.970385e-01 6.039080e-01 -6.124524e-03 1.999814e-01 1.725684e-01 1.336946e-04 -2.942867e-03
56             7.755288e-01 -6.862327e-03 1.951500e-01 6.031109e-01 -6.985228e-03 1.980756e-01 1.724180e-01 1.229014e-04 -2.925595e-03
57             7.747069e-01 -7.582646e-03 1.934847e-01 6.024210e-01 -7.693295e-03 1.963929e-01 1.722859e-01 1.106485e-04 -2.908208e-03
58             7.740025e-01 -8.050415e-03 1.921747e-01 6.018322e-01 -8.149473e-03 1.950655e-01 1.721703e-01 9.905850e-05 -2.890852e-03
59             7.735270e-01 -8.380743e-03 1.912480e-01 6.014566e-01 -8.466482e-03 1.941187e-01 1.720704e-01 8.573881e-05 -2.870684e-03
60             7.732044e-01 -8.678845e-03 1.905087e-01 6.012243e-01 -8.752114e-03 1.933628e-01 1.719801e-01 7.326936e-05 -2.854035e-03
61             7.729755e-01 -8.989446e-03 1.898441e-01 6.010743e-01 -9.050040e-03 1.926821e-01 1.719012e-01 6.059333e-05 -2.838066e-03
62             7.727885e-01 -9.323823e-03 1.891763e-01 6.009559e-01 -9.371653e-03 1.919992e-01 1.718326e-01 4.783015e-05 -2.822837e-03
63             7.726078e-01 -9.682459e-03 1.884461e-01 6.008342e-01 -9.717586e-03 1.912545e-01 1.717736e-01 3.512640e-05 -2.808359e-03
64             7.724148e-01 -1.006252e-02 1.876065e-01 6.006914e-01 -1.008505e-02 1.904011e-01 1.717234e-01 2.252255e-05 -2.794586e-03
65             7.721182e-01 -1.036358e-02 1.865608e-01 6.004324e-01 -1.037367e-02 1.893423e-01 1.716858e-01 1.009141e-05 -2.781531e-03
66             7.717615e-01 -1.055073e-02 1.854693e-01 6.001047e-01 -1.054840e-02 1.882382e-01 1.716568e-01 -2.328966e-06 -2.768877e-03
67             7.713932e-01 -1.063162e-02 1.844745e-01 5.997577e-01 -1.061685e-02 1.872310e-01 1.716355e-01 -1.476578e-05 -2.756555e-03
68             7.710438e-01 -1.064545e-02 1.836176e-01 5.994228e-01 -1.061825e-02 1.863622e-01 1.716211e-01 -2.719775e-05 -2.744570e-03
69             7.707240e-01 -1.063414e-02 1.828660e-01 5.991112e-01 -1.059453e-02 1.855990e-01 1.716128e-01 -3.961027e-05 -2.732967e-03
70             7.704365e-01 -1.062340e-02 1.821862e-01 5.988268e-01 -1.057145e-02 1.849080e-01 1.716098e-01 -5.194930e-05 -2.721813e-03
71             7.701674e-01 -1.071099e-02 1.815486e-01 5.985558e-01 -1.064508e-02 1.842597e-01 1.716115e-01 -6.590608e-05 -2.711195e-03
72             7.699372e-01 -1.076405e-02 1.809549e-01 5.983197e-01 -1.068649e-02 1.836560e-01 1.716175e-01 -7.756022e-05 -2.701109e-03
73             7.697478e-01 -1.078119e-02 1.803939e-01 5.981207e-01 -1.069224e-02 1.830855e-01 1.716271e-01 -8.894792e-05 -2.691618e-03
74             7.695971e-01 -1.076265e-02 1.798528e-01 5.979572e-01 -1.066255e-02 1.825356e-01 1.716399e-01 -1.000915e-04 -2.682738e-03
75             7.694820e-01 -1.071085e-02 1.793281e-01 5.978265e-01 -1.059985e-02 1.820026e-01 1.716555e-01 -1.110012e-04 -2.674463e-03
76             7.693801e-01 -1.070832e-02 1.788303e-01 5.977067e-01 -1.058503e-02 1.814971e-01 1.716734e-01 -1.232922e-04 -2.666812e-03
77             7.692966e-01 -1.071361e-02 1.783793e-01 5.976031e-01 -1.057860e-02 1.810390e-01 1.716935e-01 -1.350162e-04 -2.659702e-03
78             7.692561e-01 -1.062601e-02 1.779843e-01 5.975407e-01 -1.048139e-02 1.806374e-01 1.717154e-01 -1.446290e-04 -2.653044e-03
79             7.692277e-01 -1.053091e-02 1.776283e-01 5.974891e-01 -1.037546e-02 1.802752e-01 1.717387e-01 -1.554561e-04 -2.646900e-03
80             7.692081e-01 -1.040973e-02 1.772952e-01 5.974450e-01 -1.024393e-02 1.799364e-01 1.717631e-01 -1.658064e-04 -2.641194e-03
81             7.691959e-01 -1.025080e-02 1.769740e-01 5.974073e-01 -1.007510e-02 1.796099e-01 1.717886e-01 -1.756993e-04 -2.635904e-03
82             7.691904e-01 -1.004960e-02 1.766591e-01 5.973756e-01 -9.864438e-03 1.792901e-01 1.718148e-01 -1.851659e-04 -2.631009e-03
83             7.691912e-01 -9.808226e-03 1.763485e-01 5.973497e-01 -9.613977e-03 1.789750e-01 1.718415e-01 -1.942488e-04 -2.626495e-03
84             7.691974e-01 -9.532680e-03 1.760411e-01 5.973287e-01 -9.329691e-03 1.786634e-01 1.718687e-01 -2.029891e-04 -2.622350e-03
85             7.692076e-01 -9.230002e-03 1.757355e-01 5.973115e-01 -9.018582e-03 1.783541e-01 1.718961e-01 -2.114199e-04 -2.618557e-03
86             7.692203e-01 -8.908685e-03 1.754319e-01 5.972967e-01 -8.689133e-03 1.780470e-01 1.719236e-01 -2.195519e-04 -2.615101e-03
87             7.692358e-01 -8.583614e-03 1.751356e-01 5.972847e-01 -8.356218e-03 1.777475e-01 1.719510e-01 -2.273957e-04 -2.611964e-03
88             7.692553e-01 -8.274679e-03 1.748567e-01 5.972769e-01 -8.039724e-03 1.774658e-01 1.719783e-01 -2.349550e-04 -2.609120e-03
89             7.692795e-01 -7.995013e-03 1.746018e-01 5.972741e-01 -7.752779e-03 1.772083e-01 1.720054e-01 -2.422338e-04 -2.606537e-03
90             7.693079e-01 -7.744024e-03 1.743696e-01 5.972757e-01 -7.494788e-03 1.769738e-01 1.720322e-01 -2.492352e-04 -2.604187e-03
91             7.693389e-01 -7.511101e-03 1.741532e-01 5.972804e-01 -7.255132e-03 1.767553e-01 1.720585e-01 -2.559693e-04 -2.602041e-03
92             7.693710e-01 -7.283805e-03 1.739449e-01 5.972866e-01 -7.021370e-03 1.765449e-01 1.720844e-01 -2.624350e-04 -2.600083e-03
93             7.694033e-01 -7.053163e-03 1.737388e-01 5.972936e-01 -6.784567e-03 1.763371e-01 1.721097e-01 -2.685960e-04 -2.598308e-03
94             7.694355e-01 -6.814907e-03 1.735317e-01 5.973010e-01 -6.540426e-03 1.761283e-01 1.721345e-01 -2.744805e-04 -2.596646e-03
95             7.694668e-01 -6.567829e-03 1.733215e-01 5.973081e-01 -6.287676e-03 1.759166e-01 1.721587e-01 -2.801529e-04 -2.595080e-03
96             7.694958e-01 -6.311673e-03 1.731065e-01 5.973136e-01 -6.026106e-03 1.757001e-01 1.721823e-01 -2.855663e-04 -2.593629e-03
97             7.695208e-01 -6.046406e-03 1.728850e-01 5.973156e-01 -5.755597e-03 1.754772e-01 1.722052e-01 -2.908088e-04 -2.592250e-03
98             7.695404e-01 -5.778997e-03 1.726591e-01 5.973129e-01 -5.483281e-03 1.752501e-01 1.722275e-01 -2.957164e-04 -2.591003e-03
99             7.695573e-01 -5.526077e-03 1.724378e-01 5.973083e-01 -5.225515e-03 1.750276e-01 1.722490e-01 -3.005617e-04 -2.589760e-03
100            7.695860e-01 -5.282917e-03 1.722248e-01 5.973162e-01 -4.978727e-03 1.748135e-01 1.722697e-01 -3.041903e-04 -2.588705e-03
101            7.696112e-01 -5.083535e-03 1.720294e-01 5.973214e-01 -4.774655e-03 1.746169e-01 1.722899e-01 -3.088797e-04 -2.587526e-03
102            7.696428e-01 -4.897705e-03 1.718422e-01 5.973337e-01 -4.585467e-03 1.744288e-01 1.723091e-01 -3.122380e-04 -2.586586e-03
103            7.696761e-01 -4.722308e-03 1.716586e-01 5.973485e-01 -4.406440e-03 1.742441e-01 1.723276e-01 -3.158674e-04 -2.585554e-03
104            7.696787e-01 -4.585012e-03 1.714828e-01 5.973360e-01 -4.266044e-03 1.740676e-01 1.723428e-01 -3.189672e-04 -2.584736e-03
105            7.696628e-01 -4.469826e-03 1.713107e-01 5.973052e-01 -4.147383e-03 1.738944e-01 1.723576e-01 -3.224425e-04 -2.583698e-03
106            7.696348e-01 -4.364434e-03 1.711404e-01 5.972630e-01 -4.039202e-03 1.737233e-01 1.723718e-01 -3.252315e-04 -2.582900e-03
107            7.696033e-01 -4.259439e-03 1.709725e-01 5.972178e-01 -3.931529e-03 1.735546e-01 1.723855e-01 -3.279102e-04 -2.582090e-03
108            7.695746e-01 -4.148775e-03 1.708078e-01 5.971758e-01 -3.818397e-03 1.733892e-01 1.723988e-01 -3.303780e-04 -2.581302e-03
109            7.695525e-01 -4.029943e-03 1.706478e-01 5.971409e-01 -3.697281e-03 1.732283e-01 1.724116e-01 -3.326618e-04 -2.580537e-03
110            7.695386e-01 -3.903737e-03 1.704936e-01 5.971147e-01 -3.569012e-03 1.730735e-01 1.724239e-01 -3.347247e-04 -2.579824e-03
111            7.695333e-01 -3.773213e-03 1.703468e-01 5.970976e-01 -3.436529e-03 1.729259e-01 1.724357e-01 -3.366844e-04 -2.579121e-03
112            7.695348e-01 -3.642471e-03 1.702079e-01 5.970878e-01 -3.304115e-03 1.727864e-01 1.724470e-01 -3.383560e-04 -2.578519e-03
113            7.695420e-01 -3.514568e-03 1.700768e-01 5.970841e-01 -3.174457e-03 1.726547e-01 1.724579e-01 -3.401115e-04 -2.577854e-03
114            7.695512e-01 -3.391736e-03 1.699523e-01 5.970830e-01 -3.050393e-03 1.725297e-01 1.724682e-01 -3.413431e-04 -2.577403e-03
115            7.695827e-01 -3.254954e-03 1.698303e-01 5.971028e-01 -2.912013e-03 1.724071e-01 1.724799e-01 -3.429410e-04 -2.576779e-03
116            7.696040e-01 -3.131661e-03 1.697133e-01 5.971147e-01 -2.787689e-03 1.722897e-01 1.724893e-01 -3.439720e-04 -2.576413e-03
117            7.696174e-01 -3.020340e-03 1.696002e-01 5.971191e-01 -2.675224e-03 1.721761e-01 1.724983e-01 -3.451159e-04 -2.575975e-03
118            7.696229e-01 -2.918895e-03 1.694903e-01 5.971161e-01 -2.573045e-03 1.720659e-01 1.725068e-01 -3.458504e-04 -2.575685e-03
119            7.696239e-01 -2.824480e-03 1.693839e-01 5.971088e-01 -2.477603e-03 1.719592e-01 1.725151e-01 -3.468764e-04 -2.575235e-03
120            7.696205e-01 -2.735303e-03 1.692814e-01 5.970976e-01 -2.388020e-03 1.718565e-01 1.725229e-01 -3.472828e-04 -2.575034e-03
121            7.696160e-01 -2.649468e-03 1.691837e-01 5.970855e-01 -2.301466e-03 1.717583e-01 1.725305e-01 -3.480025e-04 -2.574678e-03
122            7.696099e-01 -2.566276e-03 1.690908e-01 5.970724e-01 -2.218158e-03 1.716654e-01 1.725375e-01 -3.481187e-04 -2.574565e-03
123            7.696053e-01 -2.484931e-03 1.690035e-01 5.970609e-01 -2.136227e-03 1.715778e-01 1.725444e-01 -3.487037e-04 -2.574241e-03
124            7.696004e-01 -2.405866e-03 1.689216e-01 5.970495e-01 -2.057164e-03 1.714958e-01 1.725509e-01 -3.487021e-04 -2.574165e-03
125            7.695966e-01 -2.329580e-03 1.688454e-01 5.970396e-01 -1.980663e-03 1.714194e-01 1.725570e-01 -3.489170e-04 -2.574004e-03
126            7.695930e-01 -2.256939e-03 1.687746e-01 5.970302e-01 -1.908205e-03 1.713486e-01 1.725627e-01 -3.487334e-04 -2.574002e-03
127            7.695913e-01 -2.188106e-03 1.687090e-01 5.970229e-01 -1.839177e-03 1.712828e-01 1.725684e-01 -3.489291e-04 -2.573819e-03
128            7.695893e-01 -2.123593e-03 1.686478e-01 5.970157e-01 -1.775043e-03 1.712217e-01 1.725737e-01 -3.485498e-04 -2.573867e-03
129            7.695889e-01 -2.062990e-03 1.685906e-01 5.970101e-01 -1.714366e-03 1.711643e-01 1.725788e-01 -3.486244e-04 -2.573723e-03
130            7.695877e-01 -2.006255e-03 1.685364e-01 5.970043e-01 -1.658114e-03 1.711102e-01 1.725835e-01 -3.481415e-04 -2.573816e-03
131            7.695876e-01 -1.952732e-03 1.684853e-01 5.969995e-01 -1.604609e-03 1.710590e-01 1.725880e-01 -3.481222e-04 -2.573735e-03
132            7.695968e-01 -1.919056e-03 1.684533e-01 5.970046e-01 -1.571482e-03 1.710272e-01 1.725922e-01 -3.475736e-04 -2.573873e-03
133            7.696005e-01 -1.867129e-03 1.684020e-01 5.970040e-01 -1.519601e-03 1.709758e-01 1.725965e-01 -3.475275e-04 -2.573814e-03
134            7.696018e-01 -1.817904e-03 1.683535e-01 5.970016e-01 -1.470990e-03 1.709275e-01 1.726002e-01 -3.469141e-04 -2.574000e-03
135            7.696114e-01 -1.786447e-03 1.683239e-01 5.970075e-01 -1.439654e-03 1.708979e-01 1.726039e-01 -3.467925e-04 -2.573988e-03
136            7.696137e-01 -1.739555e-03 1.682773e-01 5.970063e-01 -1.393413e-03 1.708515e-01 1.726074e-01 -3.461423e-04 -2.574189e-03
137            7.696146e-01 -1.695533e-03 1.682345e-01 5.970039e-01 -1.349525e-03 1.708087e-01 1.726107e-01 -3.460086e-04 -2.574195e-03
138            7.696120e-01 -1.655015e-03 1.681954e-01 5.969982e-01 -1.309675e-03 1.707698e-01 1.726138e-01 -3.453401e-04 -2.574412e-03
139            7.696082e-01 -1.617813e-03 1.681599e-01 5.969914e-01 -1.272657e-03 1.707343e-01 1.726167e-01 -3.451567e-04 -2.574438e-03
140            7.696018e-01 -1.584079e-03 1.681274e-01 5.969824e-01 -1.239599e-03 1.707021e-01 1.726194e-01 -3.444795e-04 -2.574655e-03
141            7.695959e-01 -1.553287e-03 1.680979e-01 5.969738e-01 -1.208959e-03 1.706725e-01 1.726221e-01 -3.443276e-04 -2.574674e-03
142            7.695977e-01 -1.533484e-03 1.680801e-01 5.969732e-01 -1.189818e-03 1.706550e-01 1.726245e-01 -3.436658e-04 -2.574894e-03
143            7.695947e-01 -1.505586e-03 1.680520e-01 5.969677e-01 -1.162038e-03 1.706270e-01 1.726270e-01 -3.435480e-04 -2.574923e-03
144            7.695907e-01 -1.479855e-03 1.680260e-01 5.969616e-01 -1.136959e-03 1.706011e-01 1.726291e-01 -3.428967e-04 -2.575161e-03
145            7.695943e-01 -1.462687e-03 1.680105e-01 5.969630e-01 -1.119900e-03 1.705857e-01 1.726312e-01 -3.427871e-04 -2.575203e-03
146            7.695932e-01 -1.438943e-03 1.679859e-01 5.969600e-01 -1.096774e-03 1.705613e-01 1.726332e-01 -3.421684e-04 -2.575461e-03
147            7.695976e-01 -1.422824e-03 1.679712e-01 5.969625e-01 -1.080756e-03 1.705467e-01 1.726351e-01 -3.420677e-04 -2.575517e-03
